v 0 eval {set sim_annotation {0 1 join-group 1073741824}}
+ 0.319851 0 1 exp 210 ------- 0 0.0 1073741824.-1 0 0
- 0.319851 0 1 exp 210 ------- 0 0.0 1073741824.-1 0 0
r 0.330691 0 1 exp 210 ------- 0 0.0 1073741824.-1 0 0
+ 0.346101 0 1 exp 210 ------- 0 0.0 1073741824.-1 1 1
- 0.346101 0 1 exp 210 ------- 0 0.0 1073741824.-1 1 1
r 0.356941 0 1 exp 210 ------- 0 0.0 1073741824.-1 1 1
+ 0.372351 0 1 exp 210 ------- 0 0.0 1073741824.-1 2 2
- 0.372351 0 1 exp 210 ------- 0 0.0 1073741824.-1 2 2
r 0.383191 0 1 exp 210 ------- 0 0.0 1073741824.-1 2 2
+ 0.398601 0 1 exp 210 ------- 0 0.0 1073741824.-1 3 3
- 0.398601 0 1 exp 210 ------- 0 0.0 1073741824.-1 3 3
r 0.409441 0 1 exp 210 ------- 0 0.0 1073741824.-1 3 3
+ 0.424851 0 1 exp 210 ------- 0 0.0 1073741824.-1 4 4
- 0.424851 0 1 exp 210 ------- 0 0.0 1073741824.-1 4 4
r 0.435691 0 1 exp 210 ------- 0 0.0 1073741824.-1 4 4
+ 0.451101 0 1 exp 210 ------- 0 0.0 1073741824.-1 5 5
- 0.451101 0 1 exp 210 ------- 0 0.0 1073741824.-1 5 5
r 0.461941 0 1 exp 210 ------- 0 0.0 1073741824.-1 5 5
+ 0.477351 0 1 exp 210 ------- 0 0.0 1073741824.-1 6 6
- 0.477351 0 1 exp 210 ------- 0 0.0 1073741824.-1 6 6
r 0.488191 0 1 exp 210 ------- 0 0.0 1073741824.-1 6 6
+ 0.503601 0 1 exp 210 ------- 0 0.0 1073741824.-1 7 7
- 0.503601 0 1 exp 210 ------- 0 0.0 1073741824.-1 7 7
r 0.514441 0 1 exp 210 ------- 0 0.0 1073741824.-1 7 7
+ 0.529851 0 1 exp 210 ------- 0 0.0 1073741824.-1 8 8
- 0.529851 0 1 exp 210 ------- 0 0.0 1073741824.-1 8 8
r 0.540691 0 1 exp 210 ------- 0 0.0 1073741824.-1 8 8
+ 0.556101 0 1 exp 210 ------- 0 0.0 1073741824.-1 9 9
- 0.556101 0 1 exp 210 ------- 0 0.0 1073741824.-1 9 9
r 0.566941 0 1 exp 210 ------- 0 0.0 1073741824.-1 9 9
+ 0.582351 0 1 exp 210 ------- 0 0.0 1073741824.-1 10 10
- 0.582351 0 1 exp 210 ------- 0 0.0 1073741824.-1 10 10
r 0.593191 0 1 exp 210 ------- 0 0.0 1073741824.-1 10 10
+ 0.608601 0 1 exp 210 ------- 0 0.0 1073741824.-1 11 11
- 0.608601 0 1 exp 210 ------- 0 0.0 1073741824.-1 11 11
r 0.619441 0 1 exp 210 ------- 0 0.0 1073741824.-1 11 11
+ 0.634851 0 1 exp 210 ------- 0 0.0 1073741824.-1 12 12
- 0.634851 0 1 exp 210 ------- 0 0.0 1073741824.-1 12 12
r 0.645691 0 1 exp 210 ------- 0 0.0 1073741824.-1 12 12
+ 0.661101 0 1 exp 210 ------- 0 0.0 1073741824.-1 13 13
- 0.661101 0 1 exp 210 ------- 0 0.0 1073741824.-1 13 13
r 0.671941 0 1 exp 210 ------- 0 0.0 1073741824.-1 13 13
+ 0.687351 0 1 exp 210 ------- 0 0.0 1073741824.-1 14 14
- 0.687351 0 1 exp 210 ------- 0 0.0 1073741824.-1 14 14
r 0.698191 0 1 exp 210 ------- 0 0.0 1073741824.-1 14 14
+ 0.713601 0 1 exp 210 ------- 0 0.0 1073741824.-1 15 15
- 0.713601 0 1 exp 210 ------- 0 0.0 1073741824.-1 15 15
r 0.724441 0 1 exp 210 ------- 0 0.0 1073741824.-1 15 15
+ 0.739851 0 1 exp 210 ------- 0 0.0 1073741824.-1 16 16
- 0.739851 0 1 exp 210 ------- 0 0.0 1073741824.-1 16 16
r 0.750691 0 1 exp 210 ------- 0 0.0 1073741824.-1 16 16
+ 0.766101 0 1 exp 210 ------- 0 0.0 1073741824.-1 17 17
- 0.766101 0 1 exp 210 ------- 0 0.0 1073741824.-1 17 17
r 0.776941 0 1 exp 210 ------- 0 0.0 1073741824.-1 17 17
+ 0.792351 0 1 exp 210 ------- 0 0.0 1073741824.-1 18 18
- 0.792351 0 1 exp 210 ------- 0 0.0 1073741824.-1 18 18
r 0.803191 0 1 exp 210 ------- 0 0.0 1073741824.-1 18 18
+ 0.818601 0 1 exp 210 ------- 0 0.0 1073741824.-1 19 19
- 0.818601 0 1 exp 210 ------- 0 0.0 1073741824.-1 19 19
r 0.829441 0 1 exp 210 ------- 0 0.0 1073741824.-1 19 19
+ 0.844851 0 1 exp 210 ------- 0 0.0 1073741824.-1 20 20
- 0.844851 0 1 exp 210 ------- 0 0.0 1073741824.-1 20 20
r 0.855691 0 1 exp 210 ------- 0 0.0 1073741824.-1 20 20
+ 0.871101 0 1 exp 210 ------- 0 0.0 1073741824.-1 21 21
- 0.871101 0 1 exp 210 ------- 0 0.0 1073741824.-1 21 21
r 0.881941 0 1 exp 210 ------- 0 0.0 1073741824.-1 21 21
+ 0.897351 0 1 exp 210 ------- 0 0.0 1073741824.-1 22 22
- 0.897351 0 1 exp 210 ------- 0 0.0 1073741824.-1 22 22
r 0.908191 0 1 exp 210 ------- 0 0.0 1073741824.-1 22 22
+ 0.923601 0 1 exp 210 ------- 0 0.0 1073741824.-1 23 23
- 0.923601 0 1 exp 210 ------- 0 0.0 1073741824.-1 23 23
r 0.934441 0 1 exp 210 ------- 0 0.0 1073741824.-1 23 23
+ 0.949851 0 1 exp 210 ------- 0 0.0 1073741824.-1 24 24
- 0.949851 0 1 exp 210 ------- 0 0.0 1073741824.-1 24 24
r 0.960691 0 1 exp 210 ------- 0 0.0 1073741824.-1 24 24
+ 0.976101 0 1 exp 210 ------- 0 0.0 1073741824.-1 25 25
- 0.976101 0 1 exp 210 ------- 0 0.0 1073741824.-1 25 25
r 0.986941 0 1 exp 210 ------- 0 0.0 1073741824.-1 25 25
+ 1.002351 0 1 exp 210 ------- 0 0.0 1073741824.-1 26 26
- 1.002351 0 1 exp 210 ------- 0 0.0 1073741824.-1 26 26
r 1.013191 0 1 exp 210 ------- 0 0.0 1073741824.-1 26 26
+ 1.028601 0 1 exp 210 ------- 0 0.0 1073741824.-1 27 27
- 1.028601 0 1 exp 210 ------- 0 0.0 1073741824.-1 27 27
r 1.039441 0 1 exp 210 ------- 0 0.0 1073741824.-1 27 27
+ 1.054851 0 1 exp 210 ------- 0 0.0 1073741824.-1 28 28
- 1.054851 0 1 exp 210 ------- 0 0.0 1073741824.-1 28 28
r 1.065691 0 1 exp 210 ------- 0 0.0 1073741824.-1 28 28
+ 1.081101 0 1 exp 210 ------- 0 0.0 1073741824.-1 29 29
- 1.081101 0 1 exp 210 ------- 0 0.0 1073741824.-1 29 29
r 1.091941 0 1 exp 210 ------- 0 0.0 1073741824.-1 29 29
+ 1.107351 0 1 exp 210 ------- 0 0.0 1073741824.-1 30 30
- 1.107351 0 1 exp 210 ------- 0 0.0 1073741824.-1 30 30
r 1.118191 0 1 exp 210 ------- 0 0.0 1073741824.-1 30 30
+ 1.133601 0 1 exp 210 ------- 0 0.0 1073741824.-1 31 31
- 1.133601 0 1 exp 210 ------- 0 0.0 1073741824.-1 31 31
r 1.144441 0 1 exp 210 ------- 0 0.0 1073741824.-1 31 31
+ 1.159851 0 1 exp 210 ------- 0 0.0 1073741824.-1 32 32
- 1.159851 0 1 exp 210 ------- 0 0.0 1073741824.-1 32 32
r 1.170691 0 1 exp 210 ------- 0 0.0 1073741824.-1 32 32
+ 1.186101 0 1 exp 210 ------- 0 0.0 1073741824.-1 33 33
- 1.186101 0 1 exp 210 ------- 0 0.0 1073741824.-1 33 33
r 1.196941 0 1 exp 210 ------- 0 0.0 1073741824.-1 33 33
+ 1.212351 0 1 exp 210 ------- 0 0.0 1073741824.-1 34 34
- 1.212351 0 1 exp 210 ------- 0 0.0 1073741824.-1 34 34
r 1.223191 0 1 exp 210 ------- 0 0.0 1073741824.-1 34 34
+ 1.238601 0 1 exp 210 ------- 0 0.0 1073741824.-1 35 35
- 1.238601 0 1 exp 210 ------- 0 0.0 1073741824.-1 35 35
r 1.249441 0 1 exp 210 ------- 0 0.0 1073741824.-1 35 35
+ 1.264851 0 1 exp 210 ------- 0 0.0 1073741824.-1 36 36
- 1.264851 0 1 exp 210 ------- 0 0.0 1073741824.-1 36 36
r 1.275691 0 1 exp 210 ------- 0 0.0 1073741824.-1 36 36
+ 1.291101 0 1 exp 210 ------- 0 0.0 1073741824.-1 37 37
- 1.291101 0 1 exp 210 ------- 0 0.0 1073741824.-1 37 37
r 1.301941 0 1 exp 210 ------- 0 0.0 1073741824.-1 37 37
+ 1.317351 0 1 exp 210 ------- 0 0.0 1073741824.-1 38 38
- 1.317351 0 1 exp 210 ------- 0 0.0 1073741824.-1 38 38
r 1.328191 0 1 exp 210 ------- 0 0.0 1073741824.-1 38 38
+ 1.343601 0 1 exp 210 ------- 0 0.0 1073741824.-1 39 39
- 1.343601 0 1 exp 210 ------- 0 0.0 1073741824.-1 39 39
r 1.354441 0 1 exp 210 ------- 0 0.0 1073741824.-1 39 39
+ 1.369851 0 1 exp 210 ------- 0 0.0 1073741824.-1 40 40
- 1.369851 0 1 exp 210 ------- 0 0.0 1073741824.-1 40 40
r 1.380691 0 1 exp 210 ------- 0 0.0 1073741824.-1 40 40
+ 1.396101 0 1 exp 210 ------- 0 0.0 1073741824.-1 41 41
- 1.396101 0 1 exp 210 ------- 0 0.0 1073741824.-1 41 41
r 1.406941 0 1 exp 210 ------- 0 0.0 1073741824.-1 41 41
+ 1.422351 0 1 exp 210 ------- 0 0.0 1073741824.-1 42 42
- 1.422351 0 1 exp 210 ------- 0 0.0 1073741824.-1 42 42
r 1.433191 0 1 exp 210 ------- 0 0.0 1073741824.-1 42 42
+ 1.448601 0 1 exp 210 ------- 0 0.0 1073741824.-1 43 43
- 1.448601 0 1 exp 210 ------- 0 0.0 1073741824.-1 43 43
r 1.459441 0 1 exp 210 ------- 0 0.0 1073741824.-1 43 43
+ 1.474851 0 1 exp 210 ------- 0 0.0 1073741824.-1 44 44
- 1.474851 0 1 exp 210 ------- 0 0.0 1073741824.-1 44 44
r 1.485691 0 1 exp 210 ------- 0 0.0 1073741824.-1 44 44
+ 1.501101 0 1 exp 210 ------- 0 0.0 1073741824.-1 45 45
- 1.501101 0 1 exp 210 ------- 0 0.0 1073741824.-1 45 45
r 1.511941 0 1 exp 210 ------- 0 0.0 1073741824.-1 45 45
+ 1.527351 0 1 exp 210 ------- 0 0.0 1073741824.-1 46 46
- 1.527351 0 1 exp 210 ------- 0 0.0 1073741824.-1 46 46
r 1.538191 0 1 exp 210 ------- 0 0.0 1073741824.-1 46 46
+ 1.553601 0 1 exp 210 ------- 0 0.0 1073741824.-1 47 47
- 1.553601 0 1 exp 210 ------- 0 0.0 1073741824.-1 47 47
r 1.564441 0 1 exp 210 ------- 0 0.0 1073741824.-1 47 47
+ 1.579851 0 1 exp 210 ------- 0 0.0 1073741824.-1 48 48
- 1.579851 0 1 exp 210 ------- 0 0.0 1073741824.-1 48 48
r 1.590691 0 1 exp 210 ------- 0 0.0 1073741824.-1 48 48
+ 1.606101 0 1 exp 210 ------- 0 0.0 1073741824.-1 49 49
- 1.606101 0 1 exp 210 ------- 0 0.0 1073741824.-1 49 49
r 1.616941 0 1 exp 210 ------- 0 0.0 1073741824.-1 49 49
+ 1.632351 0 1 exp 210 ------- 0 0.0 1073741824.-1 50 50
- 1.632351 0 1 exp 210 ------- 0 0.0 1073741824.-1 50 50
r 1.643191 0 1 exp 210 ------- 0 0.0 1073741824.-1 50 50
+ 1.658601 0 1 exp 210 ------- 0 0.0 1073741824.-1 51 51
- 1.658601 0 1 exp 210 ------- 0 0.0 1073741824.-1 51 51
r 1.669441 0 1 exp 210 ------- 0 0.0 1073741824.-1 51 51
+ 1.684851 0 1 exp 210 ------- 0 0.0 1073741824.-1 52 52
- 1.684851 0 1 exp 210 ------- 0 0.0 1073741824.-1 52 52
r 1.695691 0 1 exp 210 ------- 0 0.0 1073741824.-1 52 52
+ 1.711101 0 1 exp 210 ------- 0 0.0 1073741824.-1 53 53
- 1.711101 0 1 exp 210 ------- 0 0.0 1073741824.-1 53 53
r 1.721941 0 1 exp 210 ------- 0 0.0 1073741824.-1 53 53
+ 1.737351 0 1 exp 210 ------- 0 0.0 1073741824.-1 54 54
- 1.737351 0 1 exp 210 ------- 0 0.0 1073741824.-1 54 54
r 1.748191 0 1 exp 210 ------- 0 0.0 1073741824.-1 54 54
+ 1.763601 0 1 exp 210 ------- 0 0.0 1073741824.-1 55 55
- 1.763601 0 1 exp 210 ------- 0 0.0 1073741824.-1 55 55
r 1.774441 0 1 exp 210 ------- 0 0.0 1073741824.-1 55 55
+ 1.789851 0 1 exp 210 ------- 0 0.0 1073741824.-1 56 56
- 1.789851 0 1 exp 210 ------- 0 0.0 1073741824.-1 56 56
r 1.800691 0 1 exp 210 ------- 0 0.0 1073741824.-1 56 56
+ 1.816101 0 1 exp 210 ------- 0 0.0 1073741824.-1 57 57
- 1.816101 0 1 exp 210 ------- 0 0.0 1073741824.-1 57 57
r 1.826941 0 1 exp 210 ------- 0 0.0 1073741824.-1 57 57
+ 1.842351 0 1 exp 210 ------- 0 0.0 1073741824.-1 58 58
- 1.842351 0 1 exp 210 ------- 0 0.0 1073741824.-1 58 58
r 1.853191 0 1 exp 210 ------- 0 0.0 1073741824.-1 58 58
+ 1.868601 0 1 exp 210 ------- 0 0.0 1073741824.-1 59 59
- 1.868601 0 1 exp 210 ------- 0 0.0 1073741824.-1 59 59
r 1.879441 0 1 exp 210 ------- 0 0.0 1073741824.-1 59 59
+ 1.894851 0 1 exp 210 ------- 0 0.0 1073741824.-1 60 60
- 1.894851 0 1 exp 210 ------- 0 0.0 1073741824.-1 60 60
r 1.905691 0 1 exp 210 ------- 0 0.0 1073741824.-1 60 60
+ 1.921101 0 1 exp 210 ------- 0 0.0 1073741824.-1 61 61
- 1.921101 0 1 exp 210 ------- 0 0.0 1073741824.-1 61 61
r 1.931941 0 1 exp 210 ------- 0 0.0 1073741824.-1 61 61
+ 1.947351 0 1 exp 210 ------- 0 0.0 1073741824.-1 62 62
- 1.947351 0 1 exp 210 ------- 0 0.0 1073741824.-1 62 62
r 1.958191 0 1 exp 210 ------- 0 0.0 1073741824.-1 62 62
+ 1.973601 0 1 exp 210 ------- 0 0.0 1073741824.-1 63 63
- 1.973601 0 1 exp 210 ------- 0 0.0 1073741824.-1 63 63
r 1.984441 0 1 exp 210 ------- 0 0.0 1073741824.-1 63 63
+ 1.999851 0 1 exp 210 ------- 0 0.0 1073741824.-1 64 64
- 1.999851 0 1 exp 210 ------- 0 0.0 1073741824.-1 64 64
r 2.010691 0 1 exp 210 ------- 0 0.0 1073741824.-1 64 64
+ 2.026101 0 1 exp 210 ------- 0 0.0 1073741824.-1 65 65
- 2.026101 0 1 exp 210 ------- 0 0.0 1073741824.-1 65 65
r 2.036941 0 1 exp 210 ------- 0 0.0 1073741824.-1 65 65
+ 2.052351 0 1 exp 210 ------- 0 0.0 1073741824.-1 66 66
- 2.052351 0 1 exp 210 ------- 0 0.0 1073741824.-1 66 66
r 2.063191 0 1 exp 210 ------- 0 0.0 1073741824.-1 66 66
+ 2.078601 0 1 exp 210 ------- 0 0.0 1073741824.-1 67 67
- 2.078601 0 1 exp 210 ------- 0 0.0 1073741824.-1 67 67
r 2.089441 0 1 exp 210 ------- 0 0.0 1073741824.-1 67 67
+ 2.104851 0 1 exp 210 ------- 0 0.0 1073741824.-1 68 68
- 2.104851 0 1 exp 210 ------- 0 0.0 1073741824.-1 68 68
r 2.115691 0 1 exp 210 ------- 0 0.0 1073741824.-1 68 68
+ 2.131101 0 1 exp 210 ------- 0 0.0 1073741824.-1 69 69
- 2.131101 0 1 exp 210 ------- 0 0.0 1073741824.-1 69 69
r 2.141941 0 1 exp 210 ------- 0 0.0 1073741824.-1 69 69
+ 2.157351 0 1 exp 210 ------- 0 0.0 1073741824.-1 70 70
- 2.157351 0 1 exp 210 ------- 0 0.0 1073741824.-1 70 70
r 2.168191 0 1 exp 210 ------- 0 0.0 1073741824.-1 70 70
+ 2.183601 0 1 exp 210 ------- 0 0.0 1073741824.-1 71 71
- 2.183601 0 1 exp 210 ------- 0 0.0 1073741824.-1 71 71
r 2.194441 0 1 exp 210 ------- 0 0.0 1073741824.-1 71 71
+ 2.209851 0 1 exp 210 ------- 0 0.0 1073741824.-1 72 72
- 2.209851 0 1 exp 210 ------- 0 0.0 1073741824.-1 72 72
r 2.220691 0 1 exp 210 ------- 0 0.0 1073741824.-1 72 72
+ 2.236101 0 1 exp 210 ------- 0 0.0 1073741824.-1 73 73
- 2.236101 0 1 exp 210 ------- 0 0.0 1073741824.-1 73 73
r 2.246941 0 1 exp 210 ------- 0 0.0 1073741824.-1 73 73
+ 2.262351 0 1 exp 210 ------- 0 0.0 1073741824.-1 74 74
- 2.262351 0 1 exp 210 ------- 0 0.0 1073741824.-1 74 74
r 2.273191 0 1 exp 210 ------- 0 0.0 1073741824.-1 74 74
+ 2.288601 0 1 exp 210 ------- 0 0.0 1073741824.-1 75 75
- 2.288601 0 1 exp 210 ------- 0 0.0 1073741824.-1 75 75
r 2.299441 0 1 exp 210 ------- 0 0.0 1073741824.-1 75 75
+ 2.314851 0 1 exp 210 ------- 0 0.0 1073741824.-1 76 76
- 2.314851 0 1 exp 210 ------- 0 0.0 1073741824.-1 76 76
r 2.325691 0 1 exp 210 ------- 0 0.0 1073741824.-1 76 76
+ 2.341101 0 1 exp 210 ------- 0 0.0 1073741824.-1 77 77
- 2.341101 0 1 exp 210 ------- 0 0.0 1073741824.-1 77 77
r 2.351941 0 1 exp 210 ------- 0 0.0 1073741824.-1 77 77
+ 2.367351 0 1 exp 210 ------- 0 0.0 1073741824.-1 78 78
- 2.367351 0 1 exp 210 ------- 0 0.0 1073741824.-1 78 78
r 2.378191 0 1 exp 210 ------- 0 0.0 1073741824.-1 78 78
+ 2.393601 0 1 exp 210 ------- 0 0.0 1073741824.-1 79 79
- 2.393601 0 1 exp 210 ------- 0 0.0 1073741824.-1 79 79
r 2.404441 0 1 exp 210 ------- 0 0.0 1073741824.-1 79 79
+ 2.419851 0 1 exp 210 ------- 0 0.0 1073741824.-1 80 80
- 2.419851 0 1 exp 210 ------- 0 0.0 1073741824.-1 80 80
r 2.430691 0 1 exp 210 ------- 0 0.0 1073741824.-1 80 80
+ 2.446101 0 1 exp 210 ------- 0 0.0 1073741824.-1 81 81
- 2.446101 0 1 exp 210 ------- 0 0.0 1073741824.-1 81 81
r 2.456941 0 1 exp 210 ------- 0 0.0 1073741824.-1 81 81
+ 2.472351 0 1 exp 210 ------- 0 0.0 1073741824.-1 82 82
- 2.472351 0 1 exp 210 ------- 0 0.0 1073741824.-1 82 82
r 2.483191 0 1 exp 210 ------- 0 0.0 1073741824.-1 82 82
+ 2.498601 0 1 exp 210 ------- 0 0.0 1073741824.-1 83 83
- 2.498601 0 1 exp 210 ------- 0 0.0 1073741824.-1 83 83
r 2.509441 0 1 exp 210 ------- 0 0.0 1073741824.-1 83 83
+ 2.524851 0 1 exp 210 ------- 0 0.0 1073741824.-1 84 84
- 2.524851 0 1 exp 210 ------- 0 0.0 1073741824.-1 84 84
r 2.535691 0 1 exp 210 ------- 0 0.0 1073741824.-1 84 84
+ 2.551101 0 1 exp 210 ------- 0 0.0 1073741824.-1 85 85
- 2.551101 0 1 exp 210 ------- 0 0.0 1073741824.-1 85 85
r 2.561941 0 1 exp 210 ------- 0 0.0 1073741824.-1 85 85
+ 2.577351 0 1 exp 210 ------- 0 0.0 1073741824.-1 86 86
- 2.577351 0 1 exp 210 ------- 0 0.0 1073741824.-1 86 86
r 2.588191 0 1 exp 210 ------- 0 0.0 1073741824.-1 86 86
+ 2.603601 0 1 exp 210 ------- 0 0.0 1073741824.-1 87 87
- 2.603601 0 1 exp 210 ------- 0 0.0 1073741824.-1 87 87
r 2.614441 0 1 exp 210 ------- 0 0.0 1073741824.-1 87 87
+ 2.629851 0 1 exp 210 ------- 0 0.0 1073741824.-1 88 88
- 2.629851 0 1 exp 210 ------- 0 0.0 1073741824.-1 88 88
r 2.640691 0 1 exp 210 ------- 0 0.0 1073741824.-1 88 88
+ 2.656101 0 1 exp 210 ------- 0 0.0 1073741824.-1 89 89
- 2.656101 0 1 exp 210 ------- 0 0.0 1073741824.-1 89 89
r 2.666941 0 1 exp 210 ------- 0 0.0 1073741824.-1 89 89
+ 2.682351 0 1 exp 210 ------- 0 0.0 1073741824.-1 90 90
- 2.682351 0 1 exp 210 ------- 0 0.0 1073741824.-1 90 90
r 2.693191 0 1 exp 210 ------- 0 0.0 1073741824.-1 90 90
+ 2.708601 0 1 exp 210 ------- 0 0.0 1073741824.-1 91 91
- 2.708601 0 1 exp 210 ------- 0 0.0 1073741824.-1 91 91
r 2.719441 0 1 exp 210 ------- 0 0.0 1073741824.-1 91 91
+ 2.734851 0 1 exp 210 ------- 0 0.0 1073741824.-1 92 92
- 2.734851 0 1 exp 210 ------- 0 0.0 1073741824.-1 92 92
r 2.745691 0 1 exp 210 ------- 0 0.0 1073741824.-1 92 92
+ 2.761101 0 1 exp 210 ------- 0 0.0 1073741824.-1 93 93
- 2.761101 0 1 exp 210 ------- 0 0.0 1073741824.-1 93 93
r 2.771941 0 1 exp 210 ------- 0 0.0 1073741824.-1 93 93
+ 2.787351 0 1 exp 210 ------- 0 0.0 1073741824.-1 94 94
- 2.787351 0 1 exp 210 ------- 0 0.0 1073741824.-1 94 94
r 2.798191 0 1 exp 210 ------- 0 0.0 1073741824.-1 94 94
+ 2.813601 0 1 exp 210 ------- 0 0.0 1073741824.-1 95 95
- 2.813601 0 1 exp 210 ------- 0 0.0 1073741824.-1 95 95
r 2.824441 0 1 exp 210 ------- 0 0.0 1073741824.-1 95 95
+ 2.839851 0 1 exp 210 ------- 0 0.0 1073741824.-1 96 96
- 2.839851 0 1 exp 210 ------- 0 0.0 1073741824.-1 96 96
r 2.850691 0 1 exp 210 ------- 0 0.0 1073741824.-1 96 96
+ 2.866101 0 1 exp 210 ------- 0 0.0 1073741824.-1 97 97
- 2.866101 0 1 exp 210 ------- 0 0.0 1073741824.-1 97 97
r 2.876941 0 1 exp 210 ------- 0 0.0 1073741824.-1 97 97
+ 2.892351 0 1 exp 210 ------- 0 0.0 1073741824.-1 98 98
- 2.892351 0 1 exp 210 ------- 0 0.0 1073741824.-1 98 98
r 2.903191 0 1 exp 210 ------- 0 0.0 1073741824.-1 98 98
+ 2.918601 0 1 exp 210 ------- 0 0.0 1073741824.-1 99 99
- 2.918601 0 1 exp 210 ------- 0 0.0 1073741824.-1 99 99
r 2.929441 0 1 exp 210 ------- 0 0.0 1073741824.-1 99 99
+ 2.944851 0 1 exp 210 ------- 0 0.0 1073741824.-1 100 100
- 2.944851 0 1 exp 210 ------- 0 0.0 1073741824.-1 100 100
r 2.955691 0 1 exp 210 ------- 0 0.0 1073741824.-1 100 100
+ 2.971101 0 1 exp 210 ------- 0 0.0 1073741824.-1 101 101
- 2.971101 0 1 exp 210 ------- 0 0.0 1073741824.-1 101 101
r 2.981941 0 1 exp 210 ------- 0 0.0 1073741824.-1 101 101
+ 2.997351 0 1 exp 210 ------- 0 0.0 1073741824.-1 102 102
- 2.997351 0 1 exp 210 ------- 0 0.0 1073741824.-1 102 102
r 3.008191 0 1 exp 210 ------- 0 0.0 1073741824.-1 102 102
+ 3.023601 0 1 exp 210 ------- 0 0.0 1073741824.-1 103 103
- 3.023601 0 1 exp 210 ------- 0 0.0 1073741824.-1 103 103
r 3.034441 0 1 exp 210 ------- 0 0.0 1073741824.-1 103 103
+ 3.049851 0 1 exp 210 ------- 0 0.0 1073741824.-1 104 104
- 3.049851 0 1 exp 210 ------- 0 0.0 1073741824.-1 104 104
r 3.060691 0 1 exp 210 ------- 0 0.0 1073741824.-1 104 104
+ 3.076101 0 1 exp 210 ------- 0 0.0 1073741824.-1 105 105
- 3.076101 0 1 exp 210 ------- 0 0.0 1073741824.-1 105 105
r 3.086941 0 1 exp 210 ------- 0 0.0 1073741824.-1 105 105
+ 3.102351 0 1 exp 210 ------- 0 0.0 1073741824.-1 106 106
- 3.102351 0 1 exp 210 ------- 0 0.0 1073741824.-1 106 106
r 3.113191 0 1 exp 210 ------- 0 0.0 1073741824.-1 106 106
+ 3.128601 0 1 exp 210 ------- 0 0.0 1073741824.-1 107 107
- 3.128601 0 1 exp 210 ------- 0 0.0 1073741824.-1 107 107
r 3.139441 0 1 exp 210 ------- 0 0.0 1073741824.-1 107 107
+ 3.154851 0 1 exp 210 ------- 0 0.0 1073741824.-1 108 108
- 3.154851 0 1 exp 210 ------- 0 0.0 1073741824.-1 108 108
r 3.165691 0 1 exp 210 ------- 0 0.0 1073741824.-1 108 108
+ 3.181101 0 1 exp 210 ------- 0 0.0 1073741824.-1 109 109
- 3.181101 0 1 exp 210 ------- 0 0.0 1073741824.-1 109 109
r 3.191941 0 1 exp 210 ------- 0 0.0 1073741824.-1 109 109
+ 3.207351 0 1 exp 210 ------- 0 0.0 1073741824.-1 110 110
- 3.207351 0 1 exp 210 ------- 0 0.0 1073741824.-1 110 110
r 3.218191 0 1 exp 210 ------- 0 0.0 1073741824.-1 110 110
+ 3.233601 0 1 exp 210 ------- 0 0.0 1073741824.-1 111 111
- 3.233601 0 1 exp 210 ------- 0 0.0 1073741824.-1 111 111
r 3.244441 0 1 exp 210 ------- 0 0.0 1073741824.-1 111 111
+ 3.259851 0 1 exp 210 ------- 0 0.0 1073741824.-1 112 112
- 3.259851 0 1 exp 210 ------- 0 0.0 1073741824.-1 112 112
r 3.270691 0 1 exp 210 ------- 0 0.0 1073741824.-1 112 112
+ 3.286101 0 1 exp 210 ------- 0 0.0 1073741824.-1 113 113
- 3.286101 0 1 exp 210 ------- 0 0.0 1073741824.-1 113 113
r 3.296941 0 1 exp 210 ------- 0 0.0 1073741824.-1 113 113
+ 3.312351 0 1 exp 210 ------- 0 0.0 1073741824.-1 114 114
- 3.312351 0 1 exp 210 ------- 0 0.0 1073741824.-1 114 114
r 3.323191 0 1 exp 210 ------- 0 0.0 1073741824.-1 114 114
+ 3.338601 0 1 exp 210 ------- 0 0.0 1073741824.-1 115 115
- 3.338601 0 1 exp 210 ------- 0 0.0 1073741824.-1 115 115
r 3.349441 0 1 exp 210 ------- 0 0.0 1073741824.-1 115 115
+ 3.364851 0 1 exp 210 ------- 0 0.0 1073741824.-1 116 116
- 3.364851 0 1 exp 210 ------- 0 0.0 1073741824.-1 116 116
r 3.375691 0 1 exp 210 ------- 0 0.0 1073741824.-1 116 116
+ 3.391101 0 1 exp 210 ------- 0 0.0 1073741824.-1 117 117
- 3.391101 0 1 exp 210 ------- 0 0.0 1073741824.-1 117 117
r 3.401941 0 1 exp 210 ------- 0 0.0 1073741824.-1 117 117
+ 3.417351 0 1 exp 210 ------- 0 0.0 1073741824.-1 118 118
- 3.417351 0 1 exp 210 ------- 0 0.0 1073741824.-1 118 118
r 3.428191 0 1 exp 210 ------- 0 0.0 1073741824.-1 118 118
+ 3.443601 0 1 exp 210 ------- 0 0.0 1073741824.-1 119 119
- 3.443601 0 1 exp 210 ------- 0 0.0 1073741824.-1 119 119
r 3.454441 0 1 exp 210 ------- 0 0.0 1073741824.-1 119 119
+ 3.469851 0 1 exp 210 ------- 0 0.0 1073741824.-1 120 120
- 3.469851 0 1 exp 210 ------- 0 0.0 1073741824.-1 120 120
r 3.480691 0 1 exp 210 ------- 0 0.0 1073741824.-1 120 120
+ 3.496101 0 1 exp 210 ------- 0 0.0 1073741824.-1 121 121
- 3.496101 0 1 exp 210 ------- 0 0.0 1073741824.-1 121 121
r 3.506941 0 1 exp 210 ------- 0 0.0 1073741824.-1 121 121
+ 3.522351 0 1 exp 210 ------- 0 0.0 1073741824.-1 122 122
- 3.522351 0 1 exp 210 ------- 0 0.0 1073741824.-1 122 122
r 3.533191 0 1 exp 210 ------- 0 0.0 1073741824.-1 122 122
+ 3.548601 0 1 exp 210 ------- 0 0.0 1073741824.-1 123 123
- 3.548601 0 1 exp 210 ------- 0 0.0 1073741824.-1 123 123
r 3.559441 0 1 exp 210 ------- 0 0.0 1073741824.-1 123 123
+ 3.574851 0 1 exp 210 ------- 0 0.0 1073741824.-1 124 124
- 3.574851 0 1 exp 210 ------- 0 0.0 1073741824.-1 124 124
r 3.585691 0 1 exp 210 ------- 0 0.0 1073741824.-1 124 124
+ 3.601101 0 1 exp 210 ------- 0 0.0 1073741824.-1 125 125
- 3.601101 0 1 exp 210 ------- 0 0.0 1073741824.-1 125 125
r 3.611941 0 1 exp 210 ------- 0 0.0 1073741824.-1 125 125
+ 3.627351 0 1 exp 210 ------- 0 0.0 1073741824.-1 126 126
- 3.627351 0 1 exp 210 ------- 0 0.0 1073741824.-1 126 126
r 3.638191 0 1 exp 210 ------- 0 0.0 1073741824.-1 126 126
+ 3.653601 0 1 exp 210 ------- 0 0.0 1073741824.-1 127 127
- 3.653601 0 1 exp 210 ------- 0 0.0 1073741824.-1 127 127
r 3.664441 0 1 exp 210 ------- 0 0.0 1073741824.-1 127 127
+ 3.679851 0 1 exp 210 ------- 0 0.0 1073741824.-1 128 128
- 3.679851 0 1 exp 210 ------- 0 0.0 1073741824.-1 128 128
r 3.690691 0 1 exp 210 ------- 0 0.0 1073741824.-1 128 128
+ 3.706101 0 1 exp 210 ------- 0 0.0 1073741824.-1 129 129
- 3.706101 0 1 exp 210 ------- 0 0.0 1073741824.-1 129 129
r 3.716941 0 1 exp 210 ------- 0 0.0 1073741824.-1 129 129
+ 3.732351 0 1 exp 210 ------- 0 0.0 1073741824.-1 130 130
- 3.732351 0 1 exp 210 ------- 0 0.0 1073741824.-1 130 130
r 3.743191 0 1 exp 210 ------- 0 0.0 1073741824.-1 130 130
+ 3.758601 0 1 exp 210 ------- 0 0.0 1073741824.-1 131 131
- 3.758601 0 1 exp 210 ------- 0 0.0 1073741824.-1 131 131
r 3.769441 0 1 exp 210 ------- 0 0.0 1073741824.-1 131 131
+ 3.784851 0 1 exp 210 ------- 0 0.0 1073741824.-1 132 132
- 3.784851 0 1 exp 210 ------- 0 0.0 1073741824.-1 132 132
r 3.795691 0 1 exp 210 ------- 0 0.0 1073741824.-1 132 132
+ 3.811101 0 1 exp 210 ------- 0 0.0 1073741824.-1 133 133
- 3.811101 0 1 exp 210 ------- 0 0.0 1073741824.-1 133 133
r 3.821941 0 1 exp 210 ------- 0 0.0 1073741824.-1 133 133
+ 3.837351 0 1 exp 210 ------- 0 0.0 1073741824.-1 134 134
- 3.837351 0 1 exp 210 ------- 0 0.0 1073741824.-1 134 134
r 3.848191 0 1 exp 210 ------- 0 0.0 1073741824.-1 134 134
+ 3.863601 0 1 exp 210 ------- 0 0.0 1073741824.-1 135 135
- 3.863601 0 1 exp 210 ------- 0 0.0 1073741824.-1 135 135
r 3.874441 0 1 exp 210 ------- 0 0.0 1073741824.-1 135 135
+ 3.889851 0 1 exp 210 ------- 0 0.0 1073741824.-1 136 136
- 3.889851 0 1 exp 210 ------- 0 0.0 1073741824.-1 136 136
r 3.900691 0 1 exp 210 ------- 0 0.0 1073741824.-1 136 136
+ 3.916101 0 1 exp 210 ------- 0 0.0 1073741824.-1 137 137
- 3.916101 0 1 exp 210 ------- 0 0.0 1073741824.-1 137 137
r 3.926941 0 1 exp 210 ------- 0 0.0 1073741824.-1 137 137
+ 3.942351 0 1 exp 210 ------- 0 0.0 1073741824.-1 138 138
- 3.942351 0 1 exp 210 ------- 0 0.0 1073741824.-1 138 138
r 3.953191 0 1 exp 210 ------- 0 0.0 1073741824.-1 138 138
+ 3.968601 0 1 exp 210 ------- 0 0.0 1073741824.-1 139 139
- 3.968601 0 1 exp 210 ------- 0 0.0 1073741824.-1 139 139
r 3.979441 0 1 exp 210 ------- 0 0.0 1073741824.-1 139 139
+ 3.994851 0 1 exp 210 ------- 0 0.0 1073741824.-1 140 140
- 3.994851 0 1 exp 210 ------- 0 0.0 1073741824.-1 140 140
r 4.005691 0 1 exp 210 ------- 0 0.0 1073741824.-1 140 140
+ 4.021101 0 1 exp 210 ------- 0 0.0 1073741824.-1 141 141
- 4.021101 0 1 exp 210 ------- 0 0.0 1073741824.-1 141 141
r 4.031941 0 1 exp 210 ------- 0 0.0 1073741824.-1 141 141
+ 4.047351 0 1 exp 210 ------- 0 0.0 1073741824.-1 142 142
- 4.047351 0 1 exp 210 ------- 0 0.0 1073741824.-1 142 142
r 4.058191 0 1 exp 210 ------- 0 0.0 1073741824.-1 142 142
+ 4.073601 0 1 exp 210 ------- 0 0.0 1073741824.-1 143 143
- 4.073601 0 1 exp 210 ------- 0 0.0 1073741824.-1 143 143
r 4.084441 0 1 exp 210 ------- 0 0.0 1073741824.-1 143 143
+ 4.099851 0 1 exp 210 ------- 0 0.0 1073741824.-1 144 144
- 4.099851 0 1 exp 210 ------- 0 0.0 1073741824.-1 144 144
r 4.110691 0 1 exp 210 ------- 0 0.0 1073741824.-1 144 144
+ 4.126101 0 1 exp 210 ------- 0 0.0 1073741824.-1 145 145
- 4.126101 0 1 exp 210 ------- 0 0.0 1073741824.-1 145 145
r 4.136941 0 1 exp 210 ------- 0 0.0 1073741824.-1 145 145
+ 4.152351 0 1 exp 210 ------- 0 0.0 1073741824.-1 146 146
- 4.152351 0 1 exp 210 ------- 0 0.0 1073741824.-1 146 146
r 4.163191 0 1 exp 210 ------- 0 0.0 1073741824.-1 146 146
+ 4.178601 0 1 exp 210 ------- 0 0.0 1073741824.-1 147 147
- 4.178601 0 1 exp 210 ------- 0 0.0 1073741824.-1 147 147
r 4.189441 0 1 exp 210 ------- 0 0.0 1073741824.-1 147 147
+ 4.204851 0 1 exp 210 ------- 0 0.0 1073741824.-1 148 148
- 4.204851 0 1 exp 210 ------- 0 0.0 1073741824.-1 148 148
r 4.215691 0 1 exp 210 ------- 0 0.0 1073741824.-1 148 148
+ 4.231101 0 1 exp 210 ------- 0 0.0 1073741824.-1 149 149
- 4.231101 0 1 exp 210 ------- 0 0.0 1073741824.-1 149 149
r 4.241941 0 1 exp 210 ------- 0 0.0 1073741824.-1 149 149
+ 4.257351 0 1 exp 210 ------- 0 0.0 1073741824.-1 150 150
- 4.257351 0 1 exp 210 ------- 0 0.0 1073741824.-1 150 150
r 4.268191 0 1 exp 210 ------- 0 0.0 1073741824.-1 150 150
+ 4.283601 0 1 exp 210 ------- 0 0.0 1073741824.-1 151 151
- 4.283601 0 1 exp 210 ------- 0 0.0 1073741824.-1 151 151
r 4.294441 0 1 exp 210 ------- 0 0.0 1073741824.-1 151 151
+ 5.524363 0 1 exp 210 ------- 0 0.0 1073741824.-1 152 152
- 5.524363 0 1 exp 210 ------- 0 0.0 1073741824.-1 152 152
r 5.535203 0 1 exp 210 ------- 0 0.0 1073741824.-1 152 152
+ 5.550613 0 1 exp 210 ------- 0 0.0 1073741824.-1 153 153
- 5.550613 0 1 exp 210 ------- 0 0.0 1073741824.-1 153 153
r 5.561453 0 1 exp 210 ------- 0 0.0 1073741824.-1 153 153
+ 5.576863 0 1 exp 210 ------- 0 0.0 1073741824.-1 154 154
- 5.576863 0 1 exp 210 ------- 0 0.0 1073741824.-1 154 154
r 5.587703 0 1 exp 210 ------- 0 0.0 1073741824.-1 154 154
+ 5.603113 0 1 exp 210 ------- 0 0.0 1073741824.-1 155 155
- 5.603113 0 1 exp 210 ------- 0 0.0 1073741824.-1 155 155
r 5.613953 0 1 exp 210 ------- 0 0.0 1073741824.-1 155 155
+ 5.629363 0 1 exp 210 ------- 0 0.0 1073741824.-1 156 156
- 5.629363 0 1 exp 210 ------- 0 0.0 1073741824.-1 156 156
r 5.640203 0 1 exp 210 ------- 0 0.0 1073741824.-1 156 156
+ 5.655613 0 1 exp 210 ------- 0 0.0 1073741824.-1 157 157
- 5.655613 0 1 exp 210 ------- 0 0.0 1073741824.-1 157 157
r 5.666453 0 1 exp 210 ------- 0 0.0 1073741824.-1 157 157
+ 5.681863 0 1 exp 210 ------- 0 0.0 1073741824.-1 158 158
- 5.681863 0 1 exp 210 ------- 0 0.0 1073741824.-1 158 158
r 5.692703 0 1 exp 210 ------- 0 0.0 1073741824.-1 158 158
+ 5.708113 0 1 exp 210 ------- 0 0.0 1073741824.-1 159 159
- 5.708113 0 1 exp 210 ------- 0 0.0 1073741824.-1 159 159
r 5.718953 0 1 exp 210 ------- 0 0.0 1073741824.-1 159 159
+ 5.734363 0 1 exp 210 ------- 0 0.0 1073741824.-1 160 160
- 5.734363 0 1 exp 210 ------- 0 0.0 1073741824.-1 160 160
r 5.745203 0 1 exp 210 ------- 0 0.0 1073741824.-1 160 160
+ 5.760613 0 1 exp 210 ------- 0 0.0 1073741824.-1 161 161
- 5.760613 0 1 exp 210 ------- 0 0.0 1073741824.-1 161 161
r 5.771453 0 1 exp 210 ------- 0 0.0 1073741824.-1 161 161
+ 5.786863 0 1 exp 210 ------- 0 0.0 1073741824.-1 162 162
- 5.786863 0 1 exp 210 ------- 0 0.0 1073741824.-1 162 162
r 5.797703 0 1 exp 210 ------- 0 0.0 1073741824.-1 162 162
+ 5.813113 0 1 exp 210 ------- 0 0.0 1073741824.-1 163 163
- 5.813113 0 1 exp 210 ------- 0 0.0 1073741824.-1 163 163
r 5.823953 0 1 exp 210 ------- 0 0.0 1073741824.-1 163 163
+ 5.839363 0 1 exp 210 ------- 0 0.0 1073741824.-1 164 164
- 5.839363 0 1 exp 210 ------- 0 0.0 1073741824.-1 164 164
r 5.850203 0 1 exp 210 ------- 0 0.0 1073741824.-1 164 164
+ 5.865613 0 1 exp 210 ------- 0 0.0 1073741824.-1 165 165
- 5.865613 0 1 exp 210 ------- 0 0.0 1073741824.-1 165 165
r 5.876453 0 1 exp 210 ------- 0 0.0 1073741824.-1 165 165
+ 5.891863 0 1 exp 210 ------- 0 0.0 1073741824.-1 166 166
- 5.891863 0 1 exp 210 ------- 0 0.0 1073741824.-1 166 166
r 5.902703 0 1 exp 210 ------- 0 0.0 1073741824.-1 166 166
+ 5.918113 0 1 exp 210 ------- 0 0.0 1073741824.-1 167 167
- 5.918113 0 1 exp 210 ------- 0 0.0 1073741824.-1 167 167
r 5.928953 0 1 exp 210 ------- 0 0.0 1073741824.-1 167 167
+ 5.944363 0 1 exp 210 ------- 0 0.0 1073741824.-1 168 168
- 5.944363 0 1 exp 210 ------- 0 0.0 1073741824.-1 168 168
r 5.955203 0 1 exp 210 ------- 0 0.0 1073741824.-1 168 168
+ 5.970613 0 1 exp 210 ------- 0 0.0 1073741824.-1 169 169
- 5.970613 0 1 exp 210 ------- 0 0.0 1073741824.-1 169 169
r 5.981453 0 1 exp 210 ------- 0 0.0 1073741824.-1 169 169
+ 5.996863 0 1 exp 210 ------- 0 0.0 1073741824.-1 170 170
- 5.996863 0 1 exp 210 ------- 0 0.0 1073741824.-1 170 170
r 6.007703 0 1 exp 210 ------- 0 0.0 1073741824.-1 170 170
+ 6.023113 0 1 exp 210 ------- 0 0.0 1073741824.-1 171 171
- 6.023113 0 1 exp 210 ------- 0 0.0 1073741824.-1 171 171
r 6.033953 0 1 exp 210 ------- 0 0.0 1073741824.-1 171 171
+ 6.049363 0 1 exp 210 ------- 0 0.0 1073741824.-1 172 172
- 6.049363 0 1 exp 210 ------- 0 0.0 1073741824.-1 172 172