V -t * -v 1.0a5 -a 0
A -t * -n 1 -p 0 -o 0x7fffffff -c 30 -a 1
A -t * -h 1 -m 1073741823 -s 0
n -t * -a 0 -s 0 -S UP -v circle -c black -i black
n -t * -a 1 -s 1 -S UP -v circle -c black -i black
l -t * -s 0 -d 1 -S UP -r 2000000 -D 0.01 -c black
v -t 0 -e sim_annotation 0 0 1 join-group 1073741824
+ -t 0.319850773673874 -s 0 -d 1 -p exp -e 210 -c 0 -i 0 -a 0 -x {0.0 1073741824.-1 0 ------- null}
- -t 0.319850773673874 -s 0 -d 1 -p exp -e 210 -c 0 -i 0 -a 0 -x {0.0 1073741824.-1 0 ------- null}
h -t 0.319850773673874 -s 0 -d 1 -p exp -e 210 -c 0 -i 0 -a 0 -x {0.0 1073741824.-1 -1 ------- null}
r -t 0.330690773673874 -s 0 -d 1 -p exp -e 210 -c 0 -i 0 -a 0 -x {0.0 1073741824.-1 0 ------- null}
+ -t 0.346100773673874 -s 0 -d 1 -p exp -e 210 -c 0 -i 1 -a 0 -x {0.0 1073741824.-1 1 ------- null}
- -t 0.346100773673874 -s 0 -d 1 -p exp -e 210 -c 0 -i 1 -a 0 -x {0.0 1073741824.-1 1 ------- null}
h -t 0.346100773673874 -s 0 -d 1 -p exp -e 210 -c 0 -i 1 -a 0 -x {0.0 1073741824.-1 -1 ------- null}
r -t 0.356940773673874 -s 0 -d 1 -p exp -e 210 -c 0 -i 1 -a 0 -x {0.0 1073741824.-1 1 ------- null}
+ -t 0.372350773673874 -s 0 -d 1 -p exp -e 210 -c 0 -i 2 -a 0 -x {0.0 1073741824.-1 2 ------- null}
- -t 0.372350773673874 -s 0 -d 1 -p exp -e 210 -c 0 -i 2 -a 0 -x {0.0 1073741824.-1 2 ------- null}
h -t 0.372350773673874 -s 0 -d 1 -p exp -e 210 -c 0 -i 2 -a 0 -x {0.0 1073741824.-1 -1 ------- null}
r -t 0.383190773673874 -s 0 -d 1 -p exp -e 210 -c 0 -i 2 -a 0 -x {0.0 1073741824.-1 2 ------- null}
+ -t 0.398600773673874 -s 0 -d 1 -p exp -e 210 -c 0 -i 3 -a 0 -x {0.0 1073741824.-1 3 ------- null}
- -t 0.398600773673874 -s 0 -d 1 -p exp -e 210 -c 0 -i 3 -a 0 -x {0.0 1073741824.-1 3 ------- null}
h -t 0.398600773673874 -s 0 -d 1 -p exp -e 210 -c 0 -i 3 -a 0 -x {0.0 1073741824.-1 -1 ------- null}
r -t 0.409440773673874 -s 0 -d 1 -p exp -e 210 -c 0 -i 3 -a 0 -x {0.0 1073741824.-1 3 ------- null}
+ -t 0.424850773673874 -s 0 -d 1 -p exp -e 210 -c 0 -i 4 -a 0 -x {0.0 1073741824.-1 4 ------- null}
- -t 0.424850773673874 -s 0 -d 1 -p exp -e 210 -c 0 -i 4 -a 0 -x {0.0 1073741824.-1 4 ------- null}
h -t 0.424850773673874 -s 0 -d 1 -p exp -e 210 -c 0 -i 4 -a 0 -x {0.0 1073741824.-1 -1 ------- null}
r -t 0.435690773673874 -s 0 -d 1 -p exp -e 210 -c 0 -i 4 -a 0 -x {0.0 1073741824.-1 4 ------- null}
+ -t 0.451100773673874 -s 0 -d 1 -p exp -e 210 -c 0 -i 5 -a 0 -x {0.0 1073741824.-1 5 ------- null}
- -t 0.451100773673874 -s 0 -d 1 -p exp -e 210 -c 0 -i 5 -a 0 -x {0.0 1073741824.-1 5 ------- null}
h -t 0.451100773673874 -s 0 -d 1 -p exp -e 210 -c 0 -i 5 -a 0 -x {0.0 1073741824.-1 -1 ------- null}
r -t 0.461940773673874 -s 0 -d 1 -p exp -e 210 -c 0 -i 5 -a 0 -x {0.0 1073741824.-1 5 ------- null}
+ -t 0.477350773673874 -s 0 -d 1 -p exp -e 210 -c 0 -i 6 -a 0 -x {0.0 1073741824.-1 6 ------- null}
- -t 0.477350773673874 -s 0 -d 1 -p exp -e 210 -c 0 -i 6 -a 0 -x {0.0 1073741824.-1 6 ------- null}
h -t 0.477350773673874 -s 0 -d 1 -p exp -e 210 -c 0 -i 6 -a 0 -x {0.0 1073741824.-1 -1 ------- null}
r -t 0.488190773673874 -s 0 -d 1 -p exp -e 210 -c 0 -i 6 -a 0 -x {0.0 1073741824.-1 6 ------- null}
+ -t 0.503600773673874 -s 0 -d 1 -p exp -e 210 -c 0 -i 7 -a 0 -x {0.0 1073741824.-1 7 ------- null}
- -t 0.503600773673874 -s 0 -d 1 -p exp -e 210 -c 0 -i 7 -a 0 -x {0.0 1073741824.-1 7 ------- null}
h -t 0.503600773673874 -s 0 -d 1 -p exp -e 210 -c 0 -i 7 -a 0 -x {0.0 1073741824.-1 -1 ------- null}
r -t 0.514440773673874 -s 0 -d 1 -p exp -e 210 -c 0 -i 7 -a 0 -x {0.0 1073741824.-1 7 ------- null}
+ -t 0.529850773673874 -s 0 -d 1 -p exp -e 210 -c 0 -i 8 -a 0 -x {0.0 1073741824.-1 8 ------- null}
- -t 0.529850773673874 -s 0 -d 1 -p exp -e 210 -c 0 -i 8 -a 0 -x {0.0 1073741824.-1 8 ------- null}
h -t 0.529850773673874 -s 0 -d 1 -p exp -e 210 -c 0 -i 8 -a 0 -x {0.0 1073741824.-1 -1 ------- null}
r -t 0.540690773673874 -s 0 -d 1 -p exp -e 210 -c 0 -i 8 -a 0 -x {0.0 1073741824.-1 8 ------- null}
+ -t 0.556100773673874 -s 0 -d 1 -p exp -e 210 -c 0 -i 9 -a 0 -x {0.0 1073741824.-1 9 ------- null}
- -t 0.556100773673874 -s 0 -d 1 -p exp -e 210 -c 0 -i 9 -a 0 -x {0.0 1073741824.-1 9 ------- null}
h -t 0.556100773673874 -s 0 -d 1 -p exp -e 210 -c 0 -i 9 -a 0 -x {0.0 1073741824.-1 -1 ------- null}
r -t 0.566940773673874 -s 0 -d 1 -p exp -e 210 -c 0 -i 9 -a 0 -x {0.0 1073741824.-1 9 ------- null}
+ -t 0.582350773673874 -s 0 -d 1 -p exp -e 210 -c 0 -i 10 -a 0 -x {0.0 1073741824.-1 10 ------- null}
- -t 0.582350773673874 -s 0 -d 1 -p exp -e 210 -c 0 -i 10 -a 0 -x {0.0 1073741824.-1 10 ------- null}
h -t 0.582350773673874 -s 0 -d 1 -p exp -e 210 -c 0 -i 10 -a 0 -x {0.0 1073741824.-1 -1 ------- null}
r -t 0.593190773673874 -s 0 -d 1 -p exp -e 210 -c 0 -i 10 -a 0 -x {0.0 1073741824.-1 10 ------- null}
+ -t 0.608600773673874 -s 0 -d 1 -p exp -e 210 -c 0 -i 11 -a 0 -x {0.0 1073741824.-1 11 ------- null}
- -t 0.608600773673874 -s 0 -d 1 -p exp -e 210 -c 0 -i 11 -a 0 -x {0.0 1073741824.-1 11 ------- null}
h -t 0.608600773673874 -s 0 -d 1 -p exp -e 210 -c 0 -i 11 -a 0 -x {0.0 1073741824.-1 -1 ------- null}
r -t 0.619440773673874 -s 0 -d 1 -p exp -e 210 -c 0 -i 11 -a 0 -x {0.0 1073741824.-1 11 ------- null}
+ -t 0.634850773673874 -s 0 -d 1 -p exp -e 210 -c 0 -i 12 -a 0 -x {0.0 1073741824.-1 12 ------- null}
- -t 0.634850773673874 -s 0 -d 1 -p exp -e 210 -c 0 -i 12 -a 0 -x {0.0 1073741824.-1 12 ------- null}
h -t 0.634850773673874 -s 0 -d 1 -p exp -e 210 -c 0 -i 12 -a 0 -x {0.0 1073741824.-1 -1 ------- null}
r -t 0.645690773673874 -s 0 -d 1 -p exp -e 210 -c 0 -i 12 -a 0 -x {0.0 1073741824.-1 12 ------- null}
+ -t 0.661100773673874 -s 0 -d 1 -p exp -e 210 -c 0 -i 13 -a 0 -x {0.0 1073741824.-1 13 ------- null}
- -t 0.661100773673874 -s 0 -d 1 -p exp -e 210 -c 0 -i 13 -a 0 -x {0.0 1073741824.-1 13 ------- null}
h -t 0.661100773673874 -s 0 -d 1 -p exp -e 210 -c 0 -i 13 -a 0 -x {0.0 1073741824.-1 -1 ------- null}
r -t 0.671940773673874 -s 0 -d 1 -p exp -e 210 -c 0 -i 13 -a 0 -x {0.0 1073741824.-1 13 ------- null}
+ -t 0.687350773673874 -s 0 -d 1 -p exp -e 210 -c 0 -i 14 -a 0 -x {0.0 1073741824.-1 14 ------- null}
- -t 0.687350773673874 -s 0 -d 1 -p exp -e 210 -c 0 -i 14 -a 0 -x {0.0 1073741824.-1 14 ------- null}
h -t 0.687350773673874 -s 0 -d 1 -p exp -e 210 -c 0 -i 14 -a 0 -x {0.0 1073741824.-1 -1 ------- null}
r -t 0.698190773673874 -s 0 -d 1 -p exp -e 210 -c 0 -i 14 -a 0 -x {0.0 1073741824.-1 14 ------- null}
+ -t 0.713600773673874 -s 0 -d 1 -p exp -e 210 -c 0 -i 15 -a 0 -x {0.0 1073741824.-1 15 ------- null}
- -t 0.713600773673874 -s 0 -d 1 -p exp -e 210 -c 0 -i 15 -a 0 -x {0.0 1073741824.-1 15 ------- null}
h -t 0.713600773673874 -s 0 -d 1 -p exp -e 210 -c 0 -i 15 -a 0 -x {0.0 1073741824.-1 -1 ------- null}
r -t 0.724440773673874 -s 0 -d 1 -p exp -e 210 -c 0 -i 15 -a 0 -x {0.0 1073741824.-1 15 ------- null}
+ -t 0.739850773673874 -s 0 -d 1 -p exp -e 210 -c 0 -i 16 -a 0 -x {0.0 1073741824.-1 16 ------- null}
- -t 0.739850773673874 -s 0 -d 1 -p exp -e 210 -c 0 -i 16 -a 0 -x {0.0 1073741824.-1 16 ------- null}
h -t 0.739850773673874 -s 0 -d 1 -p exp -e 210 -c 0 -i 16 -a 0 -x {0.0 1073741824.-1 -1 ------- null}
r -t 0.750690773673874 -s 0 -d 1 -p exp -e 210 -c 0 -i 16 -a 0 -x {0.0 1073741824.-1 16 ------- null}
+ -t 0.766100773673874 -s 0 -d 1 -p exp -e 210 -c 0 -i 17 -a 0 -x {0.0 1073741824.-1 17 ------- null}
- -t 0.766100773673874 -s 0 -d 1 -p exp -e 210 -c 0 -i 17 -a 0 -x {0.0 1073741824.-1 17 ------- null}
h -t 0.766100773673874 -s 0 -d 1 -p exp -e 210 -c 0 -i 17 -a 0 -x {0.0 1073741824.-1 -1 ------- null}
r -t 0.776940773673874 -s 0 -d 1 -p exp -e 210 -c 0 -i 17 -a 0 -x {0.0 1073741824.-1 17 ------- null}
+ -t 0.792350773673874 -s 0 -d 1 -p exp -e 210 -c 0 -i 18 -a 0 -x {0.0 1073741824.-1 18 ------- null}
- -t 0.792350773673874 -s 0 -d 1 -p exp -e 210 -c 0 -i 18 -a 0 -x {0.0 1073741824.-1 18 ------- null}
h -t 0.792350773673874 -s 0 -d 1 -p exp -e 210 -c 0 -i 18 -a 0 -x {0.0 1073741824.-1 -1 ------- null}
r -t 0.803190773673874 -s 0 -d 1 -p exp -e 210 -c 0 -i 18 -a 0 -x {0.0 1073741824.-1 18 ------- null}
+ -t 0.818600773673874 -s 0 -d 1 -p exp -e 210 -c 0 -i 19 -a 0 -x {0.0 1073741824.-1 19 ------- null}
- -t 0.818600773673874 -s 0 -d 1 -p exp -e 210 -c 0 -i 19 -a 0 -x {0.0 1073741824.-1 19 ------- null}
h -t 0.818600773673874 -s 0 -d 1 -p exp -e 210 -c 0 -i 19 -a 0 -x {0.0 1073741824.-1 -1 ------- null}
r -t 0.829440773673874 -s 0 -d 1 -p exp -e 210 -c 0 -i 19 -a 0 -x {0.0 1073741824.-1 19 ------- null}
+ -t 0.844850773673874 -s 0 -d 1 -p exp -e 210 -c 0 -i 20 -a 0 -x {0.0 1073741824.-1 20 ------- null}
- -t 0.844850773673874 -s 0 -d 1 -p exp -e 210 -c 0 -i 20 -a 0 -x {0.0 1073741824.-1 20 ------- null}
h -t 0.844850773673874 -s 0 -d 1 -p exp -e 210 -c 0 -i 20 -a 0 -x {0.0 1073741824.-1 -1 ------- null}
r -t 0.855690773673874 -s 0 -d 1 -p exp -e 210 -c 0 -i 20 -a 0 -x {0.0 1073741824.-1 20 ------- null}
+ -t 0.871100773673874 -s 0 -d 1 -p exp -e 210 -c 0 -i 21 -a 0 -x {0.0 1073741824.-1 21 ------- null}
- -t 0.871100773673874 -s 0 -d 1 -p exp -e 210 -c 0 -i 21 -a 0 -x {0.0 1073741824.-1 21 ------- null}
h -t 0.871100773673874 -s 0 -d 1 -p exp -e 210 -c 0 -i 21 -a 0 -x {0.0 1073741824.-1 -1 ------- null}
r -t 0.881940773673874 -s 0 -d 1 -p exp -e 210 -c 0 -i 21 -a 0 -x {0.0 1073741824.-1 21 ------- null}
+ -t 0.897350773673874 -s 0 -d 1 -p exp -e 210 -c 0 -i 22 -a 0 -x {0.0 1073741824.-1 22 ------- null}
- -t 0.897350773673874 -s 0 -d 1 -p exp -e 210 -c 0 -i 22 -a 0 -x {0.0 1073741824.-1 22 ------- null}
h -t 0.897350773673874 -s 0 -d 1 -p exp -e 210 -c 0 -i 22 -a 0 -x {0.0 1073741824.-1 -1 ------- null}
r -t 0.908190773673874 -s 0 -d 1 -p exp -e 210 -c 0 -i 22 -a 0 -x {0.0 1073741824.-1 22 ------- null}
+ -t 0.923600773673874 -s 0 -d 1 -p exp -e 210 -c 0 -i 23 -a 0 -x {0.0 1073741824.-1 23 ------- null}
- -t 0.923600773673874 -s 0 -d 1 -p exp -e 210 -c 0 -i 23 -a 0 -x {0.0 1073741824.-1 23 ------- null}
h -t 0.923600773673874 -s 0 -d 1 -p exp -e 210 -c 0 -i 23 -a 0 -x {0.0 1073741824.-1 -1 ------- null}
r -t 0.934440773673874 -s 0 -d 1 -p exp -e 210 -c 0 -i 23 -a 0 -x {0.0 1073741824.-1 23 ------- null}
+ -t 0.949850773673874 -s 0 -d 1 -p exp -e 210 -c 0 -i 24 -a 0 -x {0.0 1073741824.-1 24 ------- null}
- -t 0.949850773673874 -s 0 -d 1 -p exp -e 210 -c 0 -i 24 -a 0 -x {0.0 1073741824.-1 24 ------- null}
h -t 0.949850773673874 -s 0 -d 1 -p exp -e 210 -c 0 -i 24 -a 0 -x {0.0 1073741824.-1 -1 ------- null}
r -t 0.960690773673874 -s 0 -d 1 -p exp -e 210 -c 0 -i 24 -a 0 -x {0.0 1073741824.-1 24 ------- null}
+ -t 0.976100773673874 -s 0 -d 1 -p exp -e 210 -c 0 -i 25 -a 0 -x {0.0 1073741824.-1 25 ------- null}
- -t 0.976100773673874 -s 0 -d 1 -p exp -e 210 -c 0 -i 25 -a 0 -x {0.0 1073741824.-1 25 ------- null}
h -t 0.976100773673874 -s 0 -d 1 -p exp -e 210 -c 0 -i 25 -a 0 -x {0.0 1073741824.-1 -1 ------- null}
r -t 0.986940773673874 -s 0 -d 1 -p exp -e 210 -c 0 -i 25 -a 0 -x {0.0 1073741824.-1 25 ------- null}
+ -t 1.00235077367387 -s 0 -d 1 -p exp -e 210 -c 0 -i 26 -a 0 -x {0.0 1073741824.-1 26 ------- null}
- -t 1.00235077367387 -s 0 -d 1 -p exp -e 210 -c 0 -i 26 -a 0 -x {0.0 1073741824.-1 26 ------- null}
h -t 1.00235077367387 -s 0 -d 1 -p exp -e 210 -c 0 -i 26 -a 0 -x {0.0 1073741824.-1 -1 ------- null}
r -t 1.01319077367387 -s 0 -d 1 -p exp -e 210 -c 0 -i 26 -a 0 -x {0.0 1073741824.-1 26 ------- null}
+ -t 1.02860077367387 -s 0 -d 1 -p exp -e 210 -c 0 -i 27 -a 0 -x {0.0 1073741824.-1 27 ------- null}
- -t 1.02860077367387 -s 0 -d 1 -p exp -e 210 -c 0 -i 27 -a 0 -x {0.0 1073741824.-1 27 ------- null}
h -t 1.02860077367387 -s 0 -d 1 -p exp -e 210 -c 0 -i 27 -a 0 -x {0.0 1073741824.-1 -1 ------- null}
r -t 1.03944077367387 -s 0 -d 1 -p exp -e 210 -c 0 -i 27 -a 0 -x {0.0 1073741824.-1 27 ------- null}
+ -t 1.05485077367387 -s 0 -d 1 -p exp -e 210 -c 0 -i 28 -a 0 -x {0.0 1073741824.-1 28 ------- null}
- -t 1.05485077367387 -s 0 -d 1 -p exp -e 210 -c 0 -i 28 -a 0 -x {0.0 1073741824.-1 28 ------- null}
h -t 1.05485077367387 -s 0 -d 1 -p exp -e 210 -c 0 -i 28 -a 0 -x {0.0 1073741824.-1 -1 ------- null}
r -t 1.06569077367387 -s 0 -d 1 -p exp -e 210 -c 0 -i 28 -a 0 -x {0.0 1073741824.-1 28 ------- null}
+ -t 1.08110077367387 -s 0 -d 1 -p exp -e 210 -c 0 -i 29 -a 0 -x {0.0 1073741824.-1 29 ------- null}
- -t 1.08110077367387 -s 0 -d 1 -p exp -e 210 -c 0 -i 29 -a 0 -x {0.0 1073741824.-1 29 ------- null}
h -t 1.08110077367387 -s 0 -d 1 -p exp -e 210 -c 0 -i 29 -a 0 -x {0.0 1073741824.-1 -1 ------- null}
r -t 1.09194077367387 -s 0 -d 1 -p exp -e 210 -c 0 -i 29 -a 0 -x {0.0 1073741824.-1 29 ------- null}
+ -t 1.10735077367387 -s 0 -d 1 -p exp -e 210 -c 0 -i 30 -a 0 -x {0.0 1073741824.-1 30 ------- null}
- -t 1.10735077367387 -s 0 -d 1 -p exp -e 210 -c 0 -i 30 -a 0 -x {0.0 1073741824.-1 30 ------- null}
h -t 1.10735077367387 -s 0 -d 1 -p exp -e 210 -c 0 -i 30 -a 0 -x {0.0 1073741824.-1 -1 ------- null}
r -t 1.11819077367387 -s 0 -d 1 -p exp -e 210 -c 0 -i 30 -a 0 -x {0.0 1073741824.-1 30 ------- null}
+ -t 1.13360077367387 -s 0 -d 1 -p exp -e 210 -c 0 -i 31 -a 0 -x {0.0 1073741824.-1 31 ------- null}
- -t 1.13360077367387 -s 0 -d 1 -p exp -e 210 -c 0 -i 31 -a 0 -x {0.0 1073741824.-1 31 ------- null}
h -t 1.13360077367387 -s 0 -d 1 -p exp -e 210 -c 0 -i 31 -a 0 -x {0.0 1073741824.-1 -1 ------- null}
r -t 1.14444077367387 -s 0 -d 1 -p exp -e 210 -c 0 -i 31 -a 0 -x {0.0 1073741824.-1 31 ------- null}
+ -t 1.15985077367387 -s 0 -d 1 -p exp -e 210 -c 0 -i 32 -a 0 -x {0.0 1073741824.-1 32 ------- null}
- -t 1.15985077367387 -s 0 -d 1 -p exp -e 210 -c 0 -i 32 -a 0 -x {0.0 1073741824.-1 32 ------- null}
h -t 1.15985077367387 -s 0 -d 1 -p exp -e 210 -c 0 -i 32 -a 0 -x {0.0 1073741824.-1 -1 ------- null}
r -t 1.17069077367387 -s 0 -d 1 -p exp -e 210 -c 0 -i 32 -a 0 -x {0.0 1073741824.-1 32 ------- null}
+ -t 1.18610077367387 -s 0 -d 1 -p exp -e 210 -c 0 -i 33 -a 0 -x {0.0 1073741824.-1 33 ------- null}
- -t 1.18610077367387 -s 0 -d 1 -p exp -e 210 -c 0 -i 33 -a 0 -x {0.0 1073741824.-1 33 ------- null}
h -t 1.18610077367387 -s 0 -d 1 -p exp -e 210 -c 0 -i 33 -a 0 -x {0.0 1073741824.-1 -1 ------- null}
r -t 1.19694077367387 -s 0 -d 1 -p exp -e 210 -c 0 -i 33 -a 0 -x {0.0 1073741824.-1 33 ------- null}
+ -t 1.21235077367387 -s 0 -d 1 -p exp -e 210 -c 0 -i 34 -a 0 -x {0.0 1073741824.-1 34 ------- null}
- -t 1.21235077367387 -s 0 -d 1 -p exp -e 210 -c 0 -i 34 -a 0 -x {0.0 1073741824.-1 34 ------- null}
h -t 1.21235077367387 -s 0 -d 1 -p exp -e 210 -c 0 -i 34 -a 0 -x {0.0 1073741824.-1 -1 ------- null}
r -t 1.22319077367387 -s 0 -d 1 -p exp -e 210 -c 0 -i 34 -a 0 -x {0.0 1073741824.-1 34 ------- null}
+ -t 1.23860077367387 -s 0 -d 1 -p exp -e 210 -c 0 -i 35 -a 0 -x {0.0 1073741824.-1 35 ------- null}
- -t 1.23860077367387 -s 0 -d 1 -p exp -e 210 -c 0 -i 35 -a 0 -x {0.0 1073741824.-1 35 ------- null}
h -t 1.23860077367387 -s 0 -d 1 -p exp -e 210 -c 0 -i 35 -a 0 -x {0.0 1073741824.-1 -1 ------- null}
r -t 1.24944077367387 -s 0 -d 1 -p exp -e 210 -c 0 -i 35 -a 0 -x {0.0 1073741824.-1 35 ------- null}
+ -t 1.26485077367387 -s 0 -d 1 -p exp -e 210 -c 0 -i 36 -a 0 -x {0.0 1073741824.-1 36 ------- null}
- -t 1.26485077367387 -s 0 -d 1 -p exp -e 210 -c 0 -i 36 -a 0 -x {0.0 1073741824.-1 36 ------- null}
h -t 1.26485077367387 -s 0 -d 1 -p exp -e 210 -c 0 -i 36 -a 0 -x {0.0 1073741824.-1 -1 ------- null}
r -t 1.27569077367387 -s 0 -d 1 -p exp -e 210 -c 0 -i 36 -a 0 -x {0.0 1073741824.-1 36 ------- null}
+ -t 1.29110077367388 -s 0 -d 1 -p exp -e 210 -c 0 -i 37 -a 0 -x {0.0 1073741824.-1 37 ------- null}
- -t 1.29110077367388 -s 0 -d 1 -p exp -e 210 -c 0 -i 37 -a 0 -x {0.0 1073741824.-1 37 ------- null}
h -t 1.29110077367388 -s 0 -d 1 -p exp -e 210 -c 0 -i 37 -a 0 -x {0.0 1073741824.-1 -1 ------- null}
r -t 1.30194077367388 -s 0 -d 1 -p exp -e 210 -c 0 -i 37 -a 0 -x {0.0 1073741824.-1 37 ------- null}
+ -t 1.31735077367388 -s 0 -d 1 -p exp -e 210 -c 0 -i 38 -a 0 -x {0.0 1073741824.-1 38 ------- null}
- -t 1.31735077367388 -s 0 -d 1 -p exp -e 210 -c 0 -i 38 -a 0 -x {0.0 1073741824.-1 38 ------- null}
h -t 1.31735077367388 -s 0 -d 1 -p exp -e 210 -c 0 -i 38 -a 0 -x {0.0 1073741824.-1 -1 ------- null}
r -t 1.32819077367388 -s 0 -d 1 -p exp -e 210 -c 0 -i 38 -a 0 -x {0.0 1073741824.-1 38 ------- null}
+ -t 1.34360077367388 -s 0 -d 1 -p exp -e 210 -c 0 -i 39 -a 0 -x {0.0 1073741824.-1 39 ------- null}
- -t 1.34360077367388 -s 0 -d 1 -p exp -e 210 -c 0 -i 39 -a 0 -x {0.0 1073741824.-1 39 ------- null}
h -t 1.34360077367388 -s 0 -d 1 -p exp -e 210 -c 0 -i 39 -a 0 -x {0.0 1073741824.-1 -1 ------- null}
r -t 1.35444077367388 -s 0 -d 1 -p exp -e 210 -c 0 -i 39 -a 0 -x {0.0 1073741824.-1 39 ------- null}
+ -t 1.36985077367388 -s 0 -d 1 -p exp -e 210 -c 0 -i 40 -a 0 -x {0.0 1073741824.-1 40 ------- null}
- -t 1.36985077367388 -s 0 -d 1 -p exp -e 210 -c 0 -i 40 -a 0 -x {0.0 1073741824.-1 40 ------- null}
h -t 1.36985077367388 -s 0 -d 1 -p exp -e 210 -c 0 -i 40 -a 0 -x {0.0 1073741824.-1 -1 ------- null}
r -t 1.38069077367388 -s 0 -d 1 -p exp -e 210 -c 0 -i 40 -a 0 -x {0.0 1073741824.-1 40 ------- null}
+ -t 1.39610077367388 -s 0 -d 1 -p exp -e 210 -c 0 -i 41 -a 0 -x {0.0 1073741824.-1 41 ------- null}
- -t 1.39610077367388 -s 0 -d 1 -p exp -e 210 -c 0 -i 41 -a 0 -x {0.0 1073741824.-1 41 ------- null}
h -t 1.39610077367388 -s 0 -d 1 -p exp -e 210 -c 0 -i 41 -a 0 -x {0.0 1073741824.-1 -1 ------- null}
r -t 1.40694077367388 -s 0 -d 1 -p exp -e 210 -c 0 -i 41 -a 0 -x {0.0 1073741824.-1 41 ------- null}
+ -t 1.42235077367388 -s 0 -d 1 -p exp -e 210 -c 0 -i 42 -a 0 -x {0.0 1073741824.-1 42 ------- null}
- -t 1.42235077367388 -s 0 -d 1 -p exp -e 210 -c 0 -i 42 -a 0 -x {0.0 1073741824.-1 42 ------- null}
h -t 1.42235077367388 -s 0 -d 1 -p exp -e 210 -c 0 -i 42 -a 0 -x {0.0 1073741824.-1 -1 ------- null}
r -t 1.43319077367388 -s 0 -d 1 -p exp -e 210 -c 0 -i 42 -a 0 -x {0.0 1073741824.-1 42 ------- null}
+ -t 1.44860077367388 -s 0 -d 1 -p exp -e 210 -c 0 -i 43 -a 0 -x {0.0 1073741824.-1 43 ------- null}
- -t 1.44860077367388 -s 0 -d 1 -p exp -e 210 -c 0 -i 43 -a 0 -x {0.0 1073741824.-1 43 ------- null}
h -t 1.44860077367388 -s 0 -d 1 -p exp -e 210 -c 0 -i 43 -a 0 -x {0.0 1073741824.-1 -1 ------- null}
r -t 1.45944077367388 -s 0 -d 1 -p exp -e 210 -c 0 -i 43 -a 0 -x {0.0 1073741824.-1 43 ------- null}
+ -t 1.47485077367388 -s 0 -d 1 -p exp -e 210 -c 0 -i 44 -a 0 -x {0.0 1073741824.-1 44 ------- null}
- -t 1.47485077367388 -s 0 -d 1 -p exp -e 210 -c 0 -i 44 -a 0 -x {0.0 1073741824.-1 44 ------- null}
h -t 1.47485077367388 -s 0 -d 1 -p exp -e 210 -c 0 -i 44 -a 0 -x {0.0 1073741824.-1 -1 ------- null}
r -t 1.48569077367388 -s 0 -d 1 -p exp -e 210 -c 0 -i 44 -a 0 -x {0.0 1073741824.-1 44 ------- null}
+ -t 1.50110077367388 -s 0 -d 1 -p exp -e 210 -c 0 -i 45 -a 0 -x {0.0 1073741824.-1 45 ------- null}
- -t 1.50110077367388 -s 0 -d 1 -p exp -e 210 -c 0 -i 45 -a 0 -x {0.0 1073741824.-1 45 ------- null}
h -t 1.50110077367388 -s 0 -d 1 -p exp -e 210 -c 0 -i 45 -a 0 -x {0.0 1073741824.-1 -1 ------- null}
r -t 1.51194077367388 -s 0 -d 1 -p exp -e 210 -c 0 -i 45 -a 0 -x {0.0 1073741824.-1 45 ------- null}
+ -t 1.52735077367388 -s 0 -d 1 -p exp -e 210 -c 0 -i 46 -a 0 -x {0.0 1073741824.-1 46 ------- null}
- -t 1.52735077367388 -s 0 -d 1 -p exp -e 210 -c 0 -i 46 -a 0 -x {0.0 1073741824.-1 46 ------- null}
h -t 1.52735077367388 -s 0 -d 1 -p exp -e 210 -c 0 -i 46 -a 0 -x {0.0 1073741824.-1 -1 ------- null}
r -t 1.53819077367388 -s 0 -d 1 -p exp -e 210 -c 0 -i 46 -a 0 -x {0.0 1073741824.-1 46 ------- null}
+ -t 1.55360077367388 -s 0 -d 1 -p exp -e 210 -c 0 -i 47 -a 0 -x {0.0 1073741824.-1 47 ------- null}
- -t 1.55360077367388 -s 0 -d 1 -p exp -e 210 -c 0 -i 47 -a 0 -x {0.0 1073741824.-1 47 ------- null}
h -t 1.55360077367388 -s 0 -d 1 -p exp -e 210 -c 0 -i 47 -a 0 -x {0.0 1073741824.-1 -1 ------- null}
r -t 1.56444077367388 -s 0 -d 1 -p exp -e 210 -c 0 -i 47 -a 0 -x {0.0 1073741824.-1 47 ------- null}
+ -t 1.57985077367388 -s 0 -d 1 -p exp -e 210 -c 0 -i 48 -a 0 -x {0.0 1073741824.-1 48 ------- null}
- -t 1.57985077367388 -s 0 -d 1 -p exp -e 210 -c 0 -i 48 -a 0 -x {0.0 1073741824.-1 48 ------- null}
h -t 1.57985077367388 -s 0 -d 1 -p exp -e 210 -c 0 -i 48 -a 0 -x {0.0 1073741824.-1 -1 ------- null}
r -t 1.59069077367388 -s 0 -d 1 -p exp -e 210 -c 0 -i 48 -a 0 -x {0.0 1073741824.-1 48 ------- null}
+ -t 1.60610077367388 -s 0 -d 1 -p exp -e 210 -c 0 -i 49 -a 0 -x {0.0 1073741824.-1 49 ------- null}
- -t 1.60610077367388 -s 0 -d 1 -p exp -e 210 -c 0 -i 49 -a 0 -x {0.0 1073741824.-1 49 ------- null}
h -t 1.60610077367388 -s 0 -d 1 -p exp -e 210 -c 0 -i 49 -a 0 -x {0.0 1073741824.-1 -1 ------- null}
r -t 1.61694077367388 -s 0 -d 1 -p exp -e 210 -c 0 -i 49 -a 0 -x {0.0 1073741824.-1 49 ------- null}
+ -t 1.63235077367388 -s 0 -d 1 -p exp -e 210 -c 0 -i 50 -a 0 -x {0.0 1073741824.-1 50 ------- null}
- -t 1.63235077367388 -s 0 -d 1 -p exp -e 210 -c 0 -i 50 -a 0 -x {0.0 1073741824.-1 50 ------- null}
h -t 1.63235077367388 -s 0 -d 1 -p exp -e 210 -c 0 -i 50 -a 0 -x {0.0 1073741824.-1 -1 ------- null}
r -t 1.64319077367388 -s 0 -d 1 -p exp -e 210 -c 0 -i 50 -a 0 -x {0.0 1073741824.-1 50 ------- null}
+ -t 1.65860077367388 -s 0 -d 1 -p exp -e 210 -c 0 -i 51 -a 0 -x {0.0 1073741824.-1 51 ------- null}
- -t 1.65860077367388 -s 0 -d 1 -p exp -e 210 -c 0 -i 51 -a 0 -x {0.0 1073741824.-1 51 ------- null}
h -t 1.65860077367388 -s 0 -d 1 -p exp -e 210 -c 0 -i 51 -a 0 -x {0.0 1073741824.-1 -1 ------- null}
r -t 1.66944077367388 -s 0 -d 1 -p exp -e 210 -c 0 -i 51 -a 0 -x {0.0 1073741824.-1 51 ------- null}
+ -t 1.68485077367388 -s 0 -d 1 -p exp -e 210 -c 0 -i 52 -a 0 -x {0.0 1073741824.-1 52 ------- null}
- -t 1.68485077367388 -s 0 -d 1 -p exp -e 210 -c 0 -i 52 -a 0 -x {0.0 1073741824.-1 52 ------- null}
h -t 1.68485077367388 -s 0 -d 1 -p exp -e 210 -c 0 -i 52 -a 0 -x {0.0 1073741824.-1 -1 ------- null}
r -t 1.69569077367388 -s 0 -d 1 -p exp -e 210 -c 0 -i 52 -a 0 -x {0.0 1073741824.-1 52 ------- null}
+ -t 1.71110077367388 -s 0 -d 1 -p exp -e 210 -c 0 -i 53 -a 0 -x {0.0 1073741824.-1 53 ------- null}
- -t 1.71110077367388 -s 0 -d 1 -p exp -e 210 -c 0 -i 53 -a 0 -x {0.0 1073741824.-1 53 ------- null}
h -t 1.71110077367388 -s 0 -d 1 -p exp -e 210 -c 0 -i 53 -a 0 -x {0.0 1073741824.-1 -1 ------- null}
r -t 1.72194077367388 -s 0 -d 1 -p exp -e 210 -c 0 -i 53 -a 0 -x {0.0 1073741824.-1 53 ------- null}
+ -t 1.73735077367388 -s 0 -d 1 -p exp -e 210 -c 0 -i 54 -a 0 -x {0.0 1073741824.-1 54 ------- null}
- -t 1.73735077367388 -s 0 -d 1 -p exp -e 210 -c 0 -i 54 -a 0 -x {0.0 1073741824.-1 54 ------- null}
h -t 1.73735077367388 -s 0 -d 1 -p exp -e 210 -c 0 -i 54 -a 0 -x {0.0 1073741824.-1 -1 ------- null}
r -t 1.74819077367388 -s 0 -d 1 -p exp -e 210 -c 0 -i 54 -a 0 -x {0.0 1073741824.-1 54 ------- null}
+ -t 1.76360077367388 -s 0 -d 1 -p exp -e 210 -c 0 -i 55 -a 0 -x {0.0 1073741824.-1 55 ------- null}
- -t 1.76360077367388 -s 0 -d 1 -p exp -e 210 -c 0 -i 55 -a 0 -x {0.0 1073741824.-1 55 ------- null}
h -t 1.76360077367388 -s 0 -d 1 -p exp -e 210 -c 0 -i 55 -a 0 -x {0.0 1073741824.-1 -1 ------- null}
r -t 1.77444077367388 -s 0 -d 1 -p exp -e 210 -c 0 -i 55 -a 0 -x {0.0 1073741824.-1 55 ------- null}
+ -t 1.78985077367388 -s 0 -d 1 -p exp -e 210 -c 0 -i 56 -a 0 -x {0.0 1073741824.-1 56 ------- null}
- -t 1.78985077367388 -s 0 -d 1 -p exp -e 210 -c 0 -i 56 -a 0 -x {0.0 1073741824.-1 56 ------- null}
h -t 1.78985077367388 -s 0 -d 1 -p exp -e 210 -c 0 -i 56 -a 0 -x {0.0 1073741824.-1 -1 ------- null}
r -t 1.80069077367388 -s 0 -d 1 -p exp -e 210 -c 0 -i 56 -a 0 -x {0.0 1073741824.-1 56 ------- null}
+ -t 1.81610077367388 -s 0 -d 1 -p exp -e 210 -c 0 -i 57 -a 0 -x {0.0 1073741824.-1 57 ------- null}
- -t 1.81610077367388 -s 0 -d 1 -p exp -e 210 -c 0 -i 57 -a 0 -x {0.0 1073741824.-1 57 ------- null}
h -t 1.81610077367388 -s 0 -d 1 -p exp -e 210 -c 0 -i 57 -a 0 -x {0.0 1073741824.-1 -1 ------- null}
r -t 1.82694077367388 -s 0 -d 1 -p exp -e 210 -c 0 -i 57 -a 0 -x {0.0 1073741824.-1 57 ------- null}
+ -t 1.84235077367388 -s 0 -d 1 -p exp -e 210 -c 0 -i 58 -a 0 -x {0.0 1073741824.-1 58 ------- null}
- -t 1.84235077367388 -s 0 -d 1 -p exp -e 210 -c 0 -i 58 -a 0 -x {0.0 1073741824.-1 58 ------- null}
h -t 1.84235077367388 -s 0 -d 1 -p exp -e 210 -c 0 -i 58 -a 0 -x {0.0 1073741824.-1 -1 ------- null}
r -t 1.85319077367388 -s 0 -d 1 -p exp -e 210 -c 0 -i 58 -a 0 -x {0.0 1073741824.-1 58 ------- null}
+ -t 1.86860077367388 -s 0 -d 1 -p exp -e 210 -c 0 -i 59 -a 0 -x {0.0 1073741824.-1 59 ------- null}
- -t 1.86860077367388 -s 0 -d 1 -p exp -e 210 -c 0 -i 59 -a 0 -x {0.0 1073741824.-1 59 ------- null}
h -t 1.86860077367388 -s 0 -d 1 -p exp -e 210 -c 0 -i 59 -a 0 -x {0.0 1073741824.-1 -1 ------- null}
r -t 1.87944077367388 -s 0 -d 1 -p exp -e 210 -c 0 -i 59 -a 0 -x {0.0 1073741824.-1 59 ------- null}
+ -t 1.89485077367388 -s 0 -d 1 -p exp -e 210 -c 0 -i 60 -a 0 -x {0.0 1073741824.-1 60 ------- null}
- -t 1.89485077367388 -s 0 -d 1 -p exp -e 210 -c 0 -i 60 -a 0 -x {0.0 1073741824.-1 60 ------- null}
h -t 1.89485077367388 -s 0 -d 1 -p exp -e 210 -c 0 -i 60 -a 0 -x {0.0 1073741824.-1 -1 ------- null}
r -t 1.90569077367388 -s 0 -d 1 -p exp -e 210 -c 0 -i 60 -a 0 -x {0.0 1073741824.-1 60 ------- null}
+ -t 1.92110077367388 -s 0 -d 1 -p exp -e 210 -c 0 -i 61 -a 0 -x {0.0 1073741824.-1 61 ------- null}
- -t 1.92110077367388 -s 0 -d 1 -p exp -e 210 -c 0 -i 61 -a 0 -x {0.0 1073741824.-1 61 ------- null}
h -t 1.92110077367388 -s 0 -d 1 -p exp -e 210 -c 0 -i 61 -a 0 -x {0.0 1073741824.-1 -1 ------- null}
r -t 1.93194077367388 -s 0 -d 1 -p exp -e 210 -c 0 -i 61 -a 0 -x {0.0 1073741824.-1 61 ------- null}
+ -t 1.94735077367388 -s 0 -d 1 -p exp -e 210 -c 0 -i 62 -a 0 -x {0.0 1073741824.-1 62 ------- null}
- -t 1.94735077367388 -s 0 -d 1 -p exp -e 210 -c 0 -i 62 -a 0 -x {0.0 1073741824.-1 62 ------- null}
h -t 1.94735077367388 -s 0 -d 1 -p exp -e 210 -c 0 -i 62 -a 0 -x {0.0 1073741824.-1 -1 ------- null}
r -t 1.95819077367388 -s 0 -d 1 -p exp -e 210 -c 0 -i 62 -a 0 -x {0.0 1073741824.-1 62 ------- null}
+ -t 1.97360077367388 -s 0 -d 1 -p exp -e 210 -c 0 -i 63 -a 0 -x {0.0 1073741824.-1 63 ------- null}
- -t 1.97360077367388 -s 0 -d 1 -p exp -e 210 -c 0 -i 63 -a 0 -x {0.0 1073741824.-1 63 ------- null}
h -t 1.97360077367388 -s 0 -d 1 -p exp -e 210 -c 0 -i 63 -a 0 -x {0.0 1073741824.-1 -1 ------- null}
r -t 1.98444077367388 -s 0 -d 1 -p exp -e 210 -c 0 -i 63 -a 0 -x {0.0 1073741824.-1 63 ------- null}
+ -t 1.99985077367388 -s 0 -d 1 -p exp -e 210 -c 0 -i 64 -a 0 -x {0.0 1073741824.-1 64 ------- null}
- -t 1.99985077367388 -s 0 -d 1 -p exp -e 210 -c 0 -i 64 -a 0 -x {0.0 1073741824.-1 64 ------- null}
h -t 1.99985077367388 -s 0 -d 1 -p exp -e 210 -c 0 -i 64 -a 0 -x {0.0 1073741824.-1 -1 ------- null}
r -t 2.01069077367388 -s 0 -d 1 -p exp -e 210 -c 0 -i 64 -a 0 -x {0.0 1073741824.-1 64 ------- null}
+ -t 2.02610077367388 -s 0 -d 1 -p exp -e 210 -c 0 -i 65 -a 0 -x {0.0 1073741824.-1 65 ------- null}
- -t 2.02610077367388 -s 0 -d 1 -p exp -e 210 -c 0 -i 65 -a 0 -x {0.0 1073741824.-1 65 ------- null}
h -t 2.02610077367388 -s 0 -d 1 -p exp -e 210 -c 0 -i 65 -a 0 -x {0.0 1073741824.-1 -1 ------- null}
r -t 2.03694077367388 -s 0 -d 1 -p exp -e 210 -c 0 -i 65 -a 0 -x {0.0 1073741824.-1 65 ------- null}
+ -t 2.05235077367388 -s 0 -d 1 -p exp -e 210 -c 0 -i 66 -a 0 -x {0.0 1073741824.-1 66 ------- null}
- -t 2.05235077367388 -s 0 -d 1 -p exp -e 210 -c 0 -i 66 -a 0 -x {0.0 1073741824.-1 66 ------- null}
h -t 2.05235077367388 -s 0 -d 1 -p exp -e 210 -c 0 -i 66 -a 0 -x {0.0 1073741824.-1 -1 ------- null}
r -t 2.06319077367388 -s 0 -d 1 -p exp -e 210 -c 0 -i 66 -a 0 -x {0.0 1073741824.-1 66 ------- null}
+ -t 2.07860077367388 -s 0 -d 1 -p exp -e 210 -c 0 -i 67 -a 0 -x {0.0 1073741824.-1 67 ------- null}
- -t 2.07860077367388 -s 0 -d 1 -p exp -e 210 -c 0 -i 67 -a 0 -x {0.0 1073741824.-1 67 ------- null}
h -t 2.07860077367388 -s 0 -d 1 -p exp -e 210 -c 0 -i 67 -a 0 -x {0.0 1073741824.-1 -1 ------- null}
r -t 2.08944077367388 -s 0 -d 1 -p exp -e 210 -c 0 -i 67 -a 0 -x {0.0 1073741824.-1 67 ------- null}
+ -t 2.10485077367388 -s 0 -d 1 -p exp -e 210 -c 0 -i 68 -a 0 -x {0.0 1073741824.-1 68 ------- null}
- -t 2.10485077367388 -s 0 -d 1 -p exp -e 210 -c 0 -i 68 -a 0 -x {0.0 1073741824.-1 68 ------- null}
h -t 2.10485077367388 -s 0 -d 1 -p exp -e 210 -c 0 -i 68 -a 0 -x {0.0 1073741824.-1 -1 ------- null}
r -t 2.11569077367388 -s 0 -d 1 -p exp -e 210 -c 0 -i 68 -a 0 -x {0.0 1073741824.-1 68 ------- null}
+ -t 2.13110077367388 -s 0 -d 1 -p exp -e 210 -c 0 -i 69 -a 0 -x {0.0 1073741824.-1 69 ------- null}
- -t 2.13110077367388 -s 0 -d 1 -p exp -e 210 -c 0 -i 69 -a 0 -x {0.0 1073741824.-1 69 ------- null}
h -t 2.13110077367388 -s 0 -d 1 -p exp -e 210 -c 0 -i 69 -a 0 -x {0.0 1073741824.-1 -1 ------- null}
r -t 2.14194077367388 -s 0 -d 1 -p exp -e 210 -c 0 -i 69 -a 0 -x {0.0 1073741824.-1 69 ------- null}
+ -t 2.15735077367388 -s 0 -d 1 -p exp -e 210 -c 0 -i 70 -a 0 -x {0.0 1073741824.-1 70 ------- null}
- -t 2.15735077367388 -s 0 -d 1 -p exp -e 210 -c 0 -i 70 -a 0 -x {0.0 1073741824.-1 70 ------- null}
h -t 2.15735077367388 -s 0 -d 1 -p exp -e 210 -c 0 -i 70 -a 0 -x {0.0 1073741824.-1 -1 ------- null}
r -t 2.16819077367388 -s 0 -d 1 -p exp -e 210 -c 0 -i 70 -a 0 -x {0.0 1073741824.-1 70 ------- null}
+ -t 2.18360077367388 -s 0 -d 1 -p exp -e 210 -c 0 -i 71 -a 0 -x {0.0 1073741824.-1 71 ------- null}
- -t 2.18360077367388 -s 0 -d 1 -p exp -e 210 -c 0 -i 71 -a 0 -x {0.0 1073741824.-1 71 ------- null}
h -t 2.18360077367388 -s 0 -d 1 -p exp -e 210 -c 0 -i 71 -a 0 -x {0.0 1073741824.-1 -1 ------- null}
r -t 2.19444077367388 -s 0 -d 1 -p exp -e 210 -c 0 -i 71 -a 0 -x {0.0 1073741824.-1 71 ------- null}
+ -t 2.20985077367388 -s 0 -d 1 -p exp -e 210 -c 0 -i 72 -a 0 -x {0.0 1073741824.-1 72 ------- null}
- -t 2.20985077367388 -s 0 -d 1 -p exp -e 210 -c 0 -i 72 -a 0 -x {0.0 1073741824.-1 72 ------- null}
h -t 2.20985077367388 -s 0 -d 1 -p exp -e 210 -c 0 -i 72 -a 0 -x {0.0 1073741824.-1 -1 ------- null}
r -t 2.22069077367388 -s 0 -d 1 -p exp -e 210 -c 0 -i 72 -a 0 -x {0.0 1073741824.-1 72 ------- null}
+ -t 2.23610077367388 -s 0 -d 1 -p exp -e 210 -c 0 -i 73 -a 0 -x {0.0 1073741824.-1 73 ------- null}