+ 0.00034 2 0 tcp 40 ------- 0 2.0 3.0 0 0
- 0.00034 2 0 tcp 40 ------- 0 2.0 3.0 0 0
r 0.001372 2 0 tcp 40 ------- 0 2.0 3.0 0 0
+ 0.001372 0 1 tcp 40 ------- 0 2.0 3.0 0 0
- 0.001372 0 1 tcp 40 ------- 0 2.0 3.0 0 0
r 0.011692 0 1 tcp 40 ------- 0 2.0 3.0 0 0
+ 0.011692 1 3 tcp 40 ------- 0 2.0 3.0 0 0
- 0.011692 1 3 tcp 40 ------- 0 2.0 3.0 0 0
r 0.012724 1 3 tcp 40 ------- 0 2.0 3.0 0 0
+ 0.012724 3 1 ack 40 ------- 0 3.0 2.0 0 1
- 0.012724 3 1 ack 40 ------- 0 3.0 2.0 0 1
r 0.013756 3 1 ack 40 ------- 0 3.0 2.0 0 1
+ 0.013756 1 0 ack 40 ------- 0 3.0 2.0 0 1
- 0.013756 1 0 ack 40 ------- 0 3.0 2.0 0 1
+ 0.014205 6 0 tcp 40 ------- 0 6.0 7.0 0 2
- 0.014205 6 0 tcp 40 ------- 0 6.0 7.0 0 2
r 0.015237 6 0 tcp 40 ------- 0 6.0 7.0 0 2
+ 0.015237 0 1 tcp 40 ------- 0 6.0 7.0 0 2
- 0.015237 0 1 tcp 40 ------- 0 6.0 7.0 0 2
r 0.024076 1 0 ack 40 ------- 0 3.0 2.0 0 1
+ 0.024076 0 2 ack 40 ------- 0 3.0 2.0 0 1
- 0.024076 0 2 ack 40 ------- 0 3.0 2.0 0 1
r 0.025108 0 2 ack 40 ------- 0 3.0 2.0 0 1
+ 0.025108 2 0 tcp 1040 ------- 0 2.0 3.0 1 3
- 0.025108 2 0 tcp 1040 ------- 0 2.0 3.0 1 3
+ 0.025108 2 0 tcp 1040 ------- 0 2.0 3.0 2 4
r 0.025557 0 1 tcp 40 ------- 0 6.0 7.0 0 2
+ 0.025557 1 7 tcp 40 ------- 0 6.0 7.0 0 2
- 0.025557 1 7 tcp 40 ------- 0 6.0 7.0 0 2
- 0.02594 2 0 tcp 1040 ------- 0 2.0 3.0 2 4
r 0.026589 1 7 tcp 40 ------- 0 6.0 7.0 0 2
+ 0.026589 7 1 ack 40 ------- 0 7.0 6.0 0 5
- 0.026589 7 1 ack 40 ------- 0 7.0 6.0 0 5
r 0.02694 2 0 tcp 1040 ------- 0 2.0 3.0 1 3
+ 0.02694 0 1 tcp 1040 ------- 0 2.0 3.0 1 3
- 0.02694 0 1 tcp 1040 ------- 0 2.0 3.0 1 3
r 0.027621 7 1 ack 40 ------- 0 7.0 6.0 0 5
+ 0.027621 1 0 ack 40 ------- 0 7.0 6.0 0 5
- 0.027621 1 0 ack 40 ------- 0 7.0 6.0 0 5
r 0.027772 2 0 tcp 1040 ------- 0 2.0 3.0 2 4
+ 0.027772 0 1 tcp 1040 ------- 0 2.0 3.0 2 4
- 0.03526 0 1 tcp 1040 ------- 0 2.0 3.0 2 4
r 0.037941 1 0 ack 40 ------- 0 7.0 6.0 0 5
+ 0.037941 0 6 ack 40 ------- 0 7.0 6.0 0 5
- 0.037941 0 6 ack 40 ------- 0 7.0 6.0 0 5
r 0.038973 0 6 ack 40 ------- 0 7.0 6.0 0 5
+ 0.038973 6 0 tcp 1040 ------- 0 6.0 7.0 1 6
- 0.038973 6 0 tcp 1040 ------- 0 6.0 7.0 1 6
+ 0.038973 6 0 tcp 1040 ------- 0 6.0 7.0 2 7
- 0.039805 6 0 tcp 1040 ------- 0 6.0 7.0 2 7
r 0.040805 6 0 tcp 1040 ------- 0 6.0 7.0 1 6
+ 0.040805 0 1 tcp 1040 ------- 0 6.0 7.0 1 6
r 0.041637 6 0 tcp 1040 ------- 0 6.0 7.0 2 7
+ 0.041637 0 1 tcp 1040 ------- 0 6.0 7.0 2 7
- 0.04358 0 1 tcp 1040 ------- 0 6.0 7.0 1 6
r 0.04526 0 1 tcp 1040 ------- 0 2.0 3.0 1 3
+ 0.04526 1 3 tcp 1040 ------- 0 2.0 3.0 1 3
- 0.04526 1 3 tcp 1040 ------- 0 2.0 3.0 1 3
r 0.047092 1 3 tcp 1040 ------- 0 2.0 3.0 1 3
+ 0.047092 3 1 ack 40 ------- 0 3.0 2.0 1 8
- 0.047092 3 1 ack 40 ------- 0 3.0 2.0 1 8
r 0.048124 3 1 ack 40 ------- 0 3.0 2.0 1 8
+ 0.048124 1 0 ack 40 ------- 0 3.0 2.0 1 8
- 0.048124 1 0 ack 40 ------- 0 3.0 2.0 1 8
- 0.0519 0 1 tcp 1040 ------- 0 6.0 7.0 2 7
r 0.05358 0 1 tcp 1040 ------- 0 2.0 3.0 2 4
+ 0.05358 1 3 tcp 1040 ------- 0 2.0 3.0 2 4
- 0.05358 1 3 tcp 1040 ------- 0 2.0 3.0 2 4
r 0.055412 1 3 tcp 1040 ------- 0 2.0 3.0 2 4
+ 0.055412 3 1 ack 40 ------- 0 3.0 2.0 2 9
- 0.055412 3 1 ack 40 ------- 0 3.0 2.0 2 9
r 0.056444 3 1 ack 40 ------- 0 3.0 2.0 2 9
+ 0.056444 1 0 ack 40 ------- 0 3.0 2.0 2 9
- 0.056444 1 0 ack 40 ------- 0 3.0 2.0 2 9
r 0.058444 1 0 ack 40 ------- 0 3.0 2.0 1 8
+ 0.058444 0 2 ack 40 ------- 0 3.0 2.0 1 8
- 0.058444 0 2 ack 40 ------- 0 3.0 2.0 1 8
r 0.059476 0 2 ack 40 ------- 0 3.0 2.0 1 8
+ 0.059476 2 0 tcp 1040 ------- 0 2.0 3.0 3 10
- 0.059476 2 0 tcp 1040 ------- 0 2.0 3.0 3 10
+ 0.059476 2 0 tcp 1040 ------- 0 2.0 3.0 4 11
- 0.060308 2 0 tcp 1040 ------- 0 2.0 3.0 4 11
r 0.061308 2 0 tcp 1040 ------- 0 2.0 3.0 3 10
+ 0.061308 0 1 tcp 1040 ------- 0 2.0 3.0 3 10
- 0.061308 0 1 tcp 1040 ------- 0 2.0 3.0 3 10
r 0.0619 0 1 tcp 1040 ------- 0 6.0 7.0 1 6
+ 0.0619 1 7 tcp 1040 ------- 0 6.0 7.0 1 6
- 0.0619 1 7 tcp 1040 ------- 0 6.0 7.0 1 6
r 0.06214 2 0 tcp 1040 ------- 0 2.0 3.0 4 11
+ 0.06214 0 1 tcp 1040 ------- 0 2.0 3.0 4 11
r 0.063732 1 7 tcp 1040 ------- 0 6.0 7.0 1 6
+ 0.063732 7 1 ack 40 ------- 0 7.0 6.0 1 12
- 0.063732 7 1 ack 40 ------- 0 7.0 6.0 1 12
r 0.064764 7 1 ack 40 ------- 0 7.0 6.0 1 12
+ 0.064764 1 0 ack 40 ------- 0 7.0 6.0 1 12
- 0.064764 1 0 ack 40 ------- 0 7.0 6.0 1 12
r 0.066764 1 0 ack 40 ------- 0 3.0 2.0 2 9
+ 0.066764 0 2 ack 40 ------- 0 3.0 2.0 2 9
- 0.066764 0 2 ack 40 ------- 0 3.0 2.0 2 9
r 0.067796 0 2 ack 40 ------- 0 3.0 2.0 2 9
+ 0.067796 2 0 tcp 1040 ------- 0 2.0 3.0 5 13
- 0.067796 2 0 tcp 1040 ------- 0 2.0 3.0 5 13
+ 0.067796 2 0 tcp 1040 ------- 0 2.0 3.0 6 14
- 0.068628 2 0 tcp 1040 ------- 0 2.0 3.0 6 14
- 0.069628 0 1 tcp 1040 ------- 0 2.0 3.0 4 11
r 0.069628 2 0 tcp 1040 ------- 0 2.0 3.0 5 13
+ 0.069628 0 1 tcp 1040 ------- 0 2.0 3.0 5 13
r 0.07022 0 1 tcp 1040 ------- 0 6.0 7.0 2 7
+ 0.07022 1 7 tcp 1040 ------- 0 6.0 7.0 2 7
- 0.07022 1 7 tcp 1040 ------- 0 6.0 7.0 2 7
r 0.07046 2 0 tcp 1040 ------- 0 2.0 3.0 6 14
+ 0.07046 0 1 tcp 1040 ------- 0 2.0 3.0 6 14
r 0.072052 1 7 tcp 1040 ------- 0 6.0 7.0 2 7
+ 0.072052 7 1 ack 40 ------- 0 7.0 6.0 2 15
- 0.072052 7 1 ack 40 ------- 0 7.0 6.0 2 15
r 0.073084 7 1 ack 40 ------- 0 7.0 6.0 2 15
+ 0.073084 1 0 ack 40 ------- 0 7.0 6.0 2 15
- 0.073084 1 0 ack 40 ------- 0 7.0 6.0 2 15
r 0.075084 1 0 ack 40 ------- 0 7.0 6.0 1 12
+ 0.075084 0 6 ack 40 ------- 0 7.0 6.0 1 12
- 0.075084 0 6 ack 40 ------- 0 7.0 6.0 1 12
r 0.076116 0 6 ack 40 ------- 0 7.0 6.0 1 12
+ 0.076116 6 0 tcp 1040 ------- 0 6.0 7.0 3 16
- 0.076116 6 0 tcp 1040 ------- 0 6.0 7.0 3 16
+ 0.076116 6 0 tcp 1040 ------- 0 6.0 7.0 4 17
- 0.076948 6 0 tcp 1040 ------- 0 6.0 7.0 4 17
- 0.077948 0 1 tcp 1040 ------- 0 2.0 3.0 5 13
r 0.077948 6 0 tcp 1040 ------- 0 6.0 7.0 3 16
+ 0.077948 0 1 tcp 1040 ------- 0 6.0 7.0 3 16
r 0.07878 6 0 tcp 1040 ------- 0 6.0 7.0 4 17
+ 0.07878 0 1 tcp 1040 ------- 0 6.0 7.0 4 17
r 0.079628 0 1 tcp 1040 ------- 0 2.0 3.0 3 10
+ 0.079628 1 3 tcp 1040 ------- 0 2.0 3.0 3 10
- 0.079628 1 3 tcp 1040 ------- 0 2.0 3.0 3 10
r 0.08146 1 3 tcp 1040 ------- 0 2.0 3.0 3 10
+ 0.08146 3 1 ack 40 ------- 0 3.0 2.0 3 18
- 0.08146 3 1 ack 40 ------- 0 3.0 2.0 3 18
r 0.082492 3 1 ack 40 ------- 0 3.0 2.0 3 18
+ 0.082492 1 0 ack 40 ------- 0 3.0 2.0 3 18
- 0.082492 1 0 ack 40 ------- 0 3.0 2.0 3 18
r 0.083404 1 0 ack 40 ------- 0 7.0 6.0 2 15
+ 0.083404 0 6 ack 40 ------- 0 7.0 6.0 2 15
- 0.083404 0 6 ack 40 ------- 0 7.0 6.0 2 15
r 0.084436 0 6 ack 40 ------- 0 7.0 6.0 2 15
+ 0.084436 6 0 tcp 1040 ------- 0 6.0 7.0 5 19
- 0.084436 6 0 tcp 1040 ------- 0 6.0 7.0 5 19
+ 0.084436 6 0 tcp 1040 ------- 0 6.0 7.0 6 20
- 0.085268 6 0 tcp 1040 ------- 0 6.0 7.0 6 20
- 0.086268 0 1 tcp 1040 ------- 0 2.0 3.0 6 14
r 0.086268 6 0 tcp 1040 ------- 0 6.0 7.0 5 19
+ 0.086268 0 1 tcp 1040 ------- 0 6.0 7.0 5 19
r 0.0871 6 0 tcp 1040 ------- 0 6.0 7.0 6 20
+ 0.0871 0 1 tcp 1040 ------- 0 6.0 7.0 6 20
r 0.087948 0 1 tcp 1040 ------- 0 2.0 3.0 4 11
+ 0.087948 1 3 tcp 1040 ------- 0 2.0 3.0 4 11
- 0.087948 1 3 tcp 1040 ------- 0 2.0 3.0 4 11
r 0.08978 1 3 tcp 1040 ------- 0 2.0 3.0 4 11
+ 0.08978 3 1 ack 40 ------- 0 3.0 2.0 4 21
- 0.08978 3 1 ack 40 ------- 0 3.0 2.0 4 21
r 0.090812 3 1 ack 40 ------- 0 3.0 2.0 4 21
+ 0.090812 1 0 ack 40 ------- 0 3.0 2.0 4 21
- 0.090812 1 0 ack 40 ------- 0 3.0 2.0 4 21
r 0.092812 1 0 ack 40 ------- 0 3.0 2.0 3 18
+ 0.092812 0 2 ack 40 ------- 0 3.0 2.0 3 18
- 0.092812 0 2 ack 40 ------- 0 3.0 2.0 3 18
r 0.093844 0 2 ack 40 ------- 0 3.0 2.0 3 18
+ 0.093844 2 0 tcp 1040 ------- 0 2.0 3.0 7 22
- 0.093844 2 0 tcp 1040 ------- 0 2.0 3.0 7 22
+ 0.093844 2 0 tcp 1040 ------- 0 2.0 3.0 8 23
- 0.094588 0 1 tcp 1040 ------- 0 6.0 7.0 3 16
- 0.094676 2 0 tcp 1040 ------- 0 2.0 3.0 8 23
r 0.095676 2 0 tcp 1040 ------- 0 2.0 3.0 7 22
+ 0.095676 0 1 tcp 1040 ------- 0 2.0 3.0 7 22
r 0.096268 0 1 tcp 1040 ------- 0 2.0 3.0 5 13
+ 0.096268 1 3 tcp 1040 ------- 0 2.0 3.0 5 13
- 0.096268 1 3 tcp 1040 ------- 0 2.0 3.0 5 13
r 0.096508 2 0 tcp 1040 ------- 0 2.0 3.0 8 23
+ 0.096508 0 1 tcp 1040 ------- 0 2.0 3.0 8 23
r 0.0981 1 3 tcp 1040 ------- 0 2.0 3.0 5 13
+ 0.0981 3 1 ack 40 ------- 0 3.0 2.0 5 24
- 0.0981 3 1 ack 40 ------- 0 3.0 2.0 5 24
r 0.099132 3 1 ack 40 ------- 0 3.0 2.0 5 24
+ 0.099132 1 0 ack 40 ------- 0 3.0 2.0 5 24
- 0.099132 1 0 ack 40 ------- 0 3.0 2.0 5 24
r 0.101132 1 0 ack 40 ------- 0 3.0 2.0 4 21
+ 0.101132 0 2 ack 40 ------- 0 3.0 2.0 4 21
- 0.101132 0 2 ack 40 ------- 0 3.0 2.0 4 21
r 0.102164 0 2 ack 40 ------- 0 3.0 2.0 4 21
+ 0.102164 2 0 tcp 1040 ------- 0 2.0 3.0 9 25
- 0.102164 2 0 tcp 1040 ------- 0 2.0 3.0 9 25
+ 0.102164 2 0 tcp 1040 ------- 0 2.0 3.0 10 26
- 0.102908 0 1 tcp 1040 ------- 0 6.0 7.0 4 17
- 0.102996 2 0 tcp 1040 ------- 0 2.0 3.0 10 26
r 0.103996 2 0 tcp 1040 ------- 0 2.0 3.0 9 25
+ 0.103996 0 1 tcp 1040 ------- 0 2.0 3.0 9 25
r 0.104588 0 1 tcp 1040 ------- 0 2.0 3.0 6 14
+ 0.104588 1 3 tcp 1040 ------- 0 2.0 3.0 6 14
- 0.104588 1 3 tcp 1040 ------- 0 2.0 3.0 6 14
r 0.104828 2 0 tcp 1040 ------- 0 2.0 3.0 10 26
+ 0.104828 0 1 tcp 1040 ------- 0 2.0 3.0 10 26
r 0.10642 1 3 tcp 1040 ------- 0 2.0 3.0 6 14
+ 0.10642 3 1 ack 40 ------- 0 3.0 2.0 6 27
- 0.10642 3 1 ack 40 ------- 0 3.0 2.0 6 27
r 0.107452 3 1 ack 40 ------- 0 3.0 2.0 6 27
+ 0.107452 1 0 ack 40 ------- 0 3.0 2.0 6 27
- 0.107452 1 0 ack 40 ------- 0 3.0 2.0 6 27
r 0.109452 1 0 ack 40 ------- 0 3.0 2.0 5 24
+ 0.109452 0 2 ack 40 ------- 0 3.0 2.0 5 24
- 0.109452 0 2 ack 40 ------- 0 3.0 2.0 5 24
r 0.110484 0 2 ack 40 ------- 0 3.0 2.0 5 24
+ 0.110484 2 0 tcp 1040 ------- 0 2.0 3.0 11 28
- 0.110484 2 0 tcp 1040 ------- 0 2.0 3.0 11 28
+ 0.110484 2 0 tcp 1040 ------- 0 2.0 3.0 12 29
- 0.111228 0 1 tcp 1040 ------- 0 6.0 7.0 5 19
- 0.111316 2 0 tcp 1040 ------- 0 2.0 3.0 12 29
r 0.112316 2 0 tcp 1040 ------- 0 2.0 3.0 11 28
+ 0.112316 0 1 tcp 1040 ------- 0 2.0 3.0 11 28
r 0.112908 0 1 tcp 1040 ------- 0 6.0 7.0 3 16
+ 0.112908 1 7 tcp 1040 ------- 0 6.0 7.0 3 16
- 0.112908 1 7 tcp 1040 ------- 0 6.0 7.0 3 16
r 0.113148 2 0 tcp 1040 ------- 0 2.0 3.0 12 29
+ 0.113148 0 1 tcp 1040 ------- 0 2.0 3.0 12 29
r 0.11474 1 7 tcp 1040 ------- 0 6.0 7.0 3 16
+ 0.11474 7 1 ack 40 ------- 0 7.0 6.0 3 30
- 0.11474 7 1 ack 40 ------- 0 7.0 6.0 3 30
r 0.115772 7 1 ack 40 ------- 0 7.0 6.0 3 30
+ 0.115772 1 0 ack 40 ------- 0 7.0 6.0 3 30
- 0.115772 1 0 ack 40 ------- 0 7.0 6.0 3 30
r 0.117772 1 0 ack 40 ------- 0 3.0 2.0 6 27
+ 0.117772 0 2 ack 40 ------- 0 3.0 2.0 6 27
- 0.117772 0 2 ack 40 ------- 0 3.0 2.0 6 27
r 0.118804 0 2 ack 40 ------- 0 3.0 2.0 6 27
+ 0.118804 2 0 tcp 1040 ------- 0 2.0 3.0 13 31
- 0.118804 2 0 tcp 1040 ------- 0 2.0 3.0 13 31
+ 0.118804 2 0 tcp 1040 ------- 0 2.0 3.0 14 32
- 0.119548 0 1 tcp 1040 ------- 0 6.0 7.0 6 20
- 0.119636 2 0 tcp 1040 ------- 0 2.0 3.0 14 32
r 0.120636 2 0 tcp 1040 ------- 0 2.0 3.0 13 31
+ 0.120636 0 1 tcp 1040 ------- 0 2.0 3.0 13 31
r 0.121228 0 1 tcp 1040 ------- 0 6.0 7.0 4 17
+ 0.121228 1 7 tcp 1040 ------- 0 6.0 7.0 4 17
- 0.121228 1 7 tcp 1040 ------- 0 6.0 7.0 4 17
r 0.121468 2 0 tcp 1040 ------- 0 2.0 3.0 14 32
+ 0.121468 0 1 tcp 1040 ------- 0 2.0 3.0 14 32
r 0.12306 1 7 tcp 1040 ------- 0 6.0 7.0 4 17
+ 0.12306 7 1 ack 40 ------- 0 7.0 6.0 4 33
- 0.12306 7 1 ack 40 ------- 0 7.0 6.0 4 33
r 0.124092 7 1 ack 40 ------- 0 7.0 6.0 4 33
+ 0.124092 1 0 ack 40 ------- 0 7.0 6.0 4 33
- 0.124092 1 0 ack 40 ------- 0 7.0 6.0 4 33
r 0.126092 1 0 ack 40 ------- 0 7.0 6.0 3 30
+ 0.126092 0 6 ack 40 ------- 0 7.0 6.0 3 30
- 0.126092 0 6 ack 40 ------- 0 7.0 6.0 3 30
r 0.127124 0 6 ack 40 ------- 0 7.0 6.0 3 30
+ 0.127124 6 0 tcp 1040 ------- 0 6.0 7.0 7 34
- 0.127124 6 0 tcp 1040 ------- 0 6.0 7.0 7 34
+ 0.127124 6 0 tcp 1040 ------- 0 6.0 7.0 8 35
- 0.127868 0 1 tcp 1040 ------- 0 2.0 3.0 7 22
- 0.127956 6 0 tcp 1040 ------- 0 6.0 7.0 8 35
r 0.128956 6 0 tcp 1040 ------- 0 6.0 7.0 7 34
+ 0.128956 0 1 tcp 1040 ------- 0 6.0 7.0 7 34
r 0.129548 0 1 tcp 1040 ------- 0 6.0 7.0 5 19
+ 0.129548 1 7 tcp 1040 ------- 0 6.0 7.0 5 19
- 0.129548 1 7 tcp 1040 ------- 0 6.0 7.0 5 19
r 0.129788 6 0 tcp 1040 ------- 0 6.0 7.0 8 35
+ 0.129788 0 1 tcp 1040 ------- 0 6.0 7.0 8 35
r 0.13138 1 7 tcp 1040 ------- 0 6.0 7.0 5 19
+ 0.13138 7 1 ack 40 ------- 0 7.0 6.0 5 36
- 0.13138 7 1 ack 40 ------- 0 7.0 6.0 5 36
r 0.132412 7 1 ack 40 ------- 0 7.0 6.0 5 36
+ 0.132412 1 0 ack 40 ------- 0 7.0 6.0 5 36
- 0.132412 1 0 ack 40 ------- 0 7.0 6.0 5 36
r 0.134412 1 0 ack 40 ------- 0 7.0 6.0 4 33
+ 0.134412 0 6 ack 40 ------- 0 7.0 6.0 4 33
- 0.134412 0 6 ack 40 ------- 0 7.0 6.0 4 33
r 0.135444 0 6 ack 40 ------- 0 7.0 6.0 4 33
+ 0.135444 6 0 tcp 1040 ------- 0 6.0 7.0 9 37
- 0.135444 6 0 tcp 1040 ------- 0 6.0 7.0 9 37
+ 0.135444 6 0 tcp 1040 ------- 0 6.0 7.0 10 38
- 0.136188 0 1 tcp 1040 ------- 0 2.0 3.0 8 23
- 0.136276 6 0 tcp 1040 ------- 0 6.0 7.0 10 38
r 0.137276 6 0 tcp 1040 ------- 0 6.0 7.0 9 37
+ 0.137276 0 1 tcp 1040 ------- 0 6.0 7.0 9 37
r 0.137868 0 1 tcp 1040 ------- 0 6.0 7.0 6 20
+ 0.137868 1 7 tcp 1040 ------- 0 6.0 7.0 6 20
- 0.137868 1 7 tcp 1040 ------- 0 6.0 7.0 6 20
r 0.138108 6 0 tcp 1040 ------- 0 6.0 7.0 10 38
+ 0.138108 0 1 tcp 1040 ------- 0 6.0 7.0 10 38
d 0.138108 0 1 tcp 1040 ------- 0 6.0 7.0 10 38
r 0.1397 1 7 tcp 1040 ------- 0 6.0 7.0 6 20
+ 0.1397 7 1 ack 40 ------- 0 7.0 6.0 6 39
- 0.1397 7 1 ack 40 ------- 0 7.0 6.0 6 39
r 0.140732 7 1 ack 40 ------- 0 7.0 6.0 6 39
+ 0.140732 1 0 ack 40 ------- 0 7.0 6.0 6 39
- 0.140732 1 0 ack 40 ------- 0 7.0 6.0 6 39
r 0.142732 1 0 ack 40 ------- 0 7.0 6.0 5 36
+ 0.142732 0 6 ack 40 ------- 0 7.0 6.0 5 36
- 0.142732 0 6 ack 40 ------- 0 7.0 6.0 5 36
r 0.143764 0 6 ack 40 ------- 0 7.0 6.0 5 36
+ 0.143764 6 0 tcp 1040 ------- 0 6.0 7.0 11 40
- 0.143764 6 0 tcp 1040 ------- 0 6.0 7.0 11 40
+ 0.143764 6 0 tcp 1040 ------- 0 6.0 7.0 12 41
- 0.144508 0 1 tcp 1040 ------- 0 2.0 3.0 9 25
- 0.144596 6 0 tcp 1040 ------- 0 6.0 7.0 12 41
r 0.145596 6 0 tcp 1040 ------- 0 6.0 7.0 11 40
+ 0.145596 0 1 tcp 1040 ------- 0 6.0 7.0 11 40
r 0.146188 0 1 tcp 1040 ------- 0 2.0 3.0 7 22
+ 0.146188 1 3 tcp 1040 ------- 0 2.0 3.0 7 22
- 0.146188 1 3 tcp 1040 ------- 0 2.0 3.0 7 22
r 0.146428 6 0 tcp 1040 ------- 0 6.0 7.0 12 41
+ 0.146428 0 1 tcp 1040 ------- 0 6.0 7.0 12 41
d 0.146428 0 1 tcp 1040 ------- 0 6.0 7.0 12 41
r 0.14802 1 3 tcp 1040 ------- 0 2.0 3.0 7 22
+ 0.14802 3 1 ack 40 ------- 0 3.0 2.0 7 42
- 0.14802 3 1 ack 40 ------- 0 3.0 2.0 7 42
r 0.149052 3 1 ack 40 ------- 0 3.0 2.0 7 42
+ 0.149052 1 0 ack 40 ------- 0 3.0 2.0 7 42
- 0.149052 1 0 ack 40 ------- 0 3.0 2.0 7 42
r 0.151052 1 0 ack 40 ------- 0 7.0 6.0 6 39
+ 0.151052 0 6 ack 40 ------- 0 7.0 6.0 6 39
- 0.151052 0 6 ack 40 ------- 0 7.0 6.0 6 39
r 0.152084 0 6 ack 40 ------- 0 7.0 6.0 6 39
+ 0.152084 6 0 tcp 1040 ------- 0 6.0 7.0 13 43
- 0.152084 6 0 tcp 1040 ------- 0 6.0 7.0 13 43
+ 0.152084 6 0 tcp 1040 ------- 0 6.0 7.0 14 44
- 0.152828 0 1 tcp 1040 ------- 0 2.0 3.0 10 26
- 0.152916 6 0 tcp 1040 ------- 0 6.0 7.0 14 44
r 0.153916 6 0 tcp 1040 ------- 0 6.0 7.0 13 43
+ 0.153916 0 1 tcp 1040 ------- 0 6.0 7.0 13 43
r 0.154508 0 1 tcp 1040 ------- 0 2.0 3.0 8 23
+ 0.154508 1 3 tcp 1040 ------- 0 2.0 3.0 8 23
- 0.154508 1 3 tcp 1040 ------- 0 2.0 3.0 8 23
r 0.154748 6 0 tcp 1040 ------- 0 6.0 7.0 14 44
+ 0.154748 0 1 tcp 1040 ------- 0 6.0 7.0 14 44
d 0.154748 0 1 tcp 1040 ------- 0 6.0 7.0 14 44
r 0.15634 1 3 tcp 1040 ------- 0 2.0 3.0 8 23
+ 0.15634 3 1 ack 40 ------- 0 3.0 2.0 8 45
- 0.15634 3 1 ack 40 ------- 0 3.0 2.0 8 45
r 0.157372 3 1 ack 40 ------- 0 3.0 2.0 8 45
+ 0.157372 1 0 ack 40 ------- 0 3.0 2.0 8 45
- 0.157372 1 0 ack 40 ------- 0 3.0 2.0 8 45
r 0.159372 1 0 ack 40 ------- 0 3.0 2.0 7 42
+ 0.159372 0 2 ack 40 ------- 0 3.0 2.0 7 42
- 0.159372 0 2 ack 40 ------- 0 3.0 2.0 7 42
r 0.160404 0 2 ack 40 ------- 0 3.0 2.0 7 42
+ 0.160404 2 0 tcp 1040 ------- 0 2.0 3.0 15 46
- 0.160404 2 0 tcp 1040 ------- 0 2.0 3.0 15 46
+ 0.160404 2 0 tcp 1040 ------- 0 2.0 3.0 16 47
- 0.161148 0 1 tcp 1040 ------- 0 2.0 3.0 11 28
- 0.161236 2 0 tcp 1040 ------- 0 2.0 3.0 16 47
r 0.162236 2 0 tcp 1040 ------- 0 2.0 3.0 15 46
+ 0.162236 0 1 tcp 1040 ------- 0 2.0 3.0 15 46
r 0.162828 0 1 tcp 1040 ------- 0 2.0 3.0 9 25
+ 0.162828 1 3 tcp 1040 ------- 0 2.0 3.0 9 25
- 0.162828 1 3 tcp 1040 ------- 0 2.0 3.0 9 25
r 0.163068 2 0 tcp 1040 ------- 0 2.0 3.0 16 47
+ 0.163068 0 1 tcp 1040 ------- 0 2.0 3.0 16 47
d 0.163068 0 1 tcp 1040 ------- 0 2.0 3.0 16 47
r 0.16466 1 3 tcp 1040 ------- 0 2.0 3.0 9 25
+ 0.16466 3 1 ack 40 ------- 0 3.0 2.0 9 48
- 0.16466 3 1 ack 40 ------- 0 3.0 2.0 9 48
r 0.165692 3 1 ack 40 ------- 0 3.0 2.0 9 48
+ 0.165692 1 0 ack 40 ------- 0 3.0 2.0 9 48
- 0.165692 1 0 ack 40 ------- 0 3.0 2.0 9 48
r 0.167692 1 0 ack 40 ------- 0 3.0 2.0 8 45
+ 0.167692 0 2 ack 40 ------- 0 3.0 2.0 8 45
- 0.167692 0 2 ack 40 ------- 0 3.0 2.0 8 45
r 0.168724 0 2 ack 40 ------- 0 3.0 2.0 8 45
+ 0.168724 2 0 tcp 1040 ------- 0 2.0 3.0 17 49
- 0.168724 2 0 tcp 1040 ------- 0 2.0 3.0 17 49
+ 0.168724 2 0 tcp 1040 ------- 0 2.0 3.0 18 50
- 0.169468 0 1 tcp 1040 ------- 0 2.0 3.0 12 29
- 0.169556 2 0 tcp 1040 ------- 0 2.0 3.0 18 50
r 0.170556 2 0 tcp 1040 ------- 0 2.0 3.0 17 49
+ 0.170556 0 1 tcp 1040 ------- 0 2.0 3.0 17 49
r 0.171148 0 1 tcp 1040 ------- 0 2.0 3.0 10 26
+ 0.171148 1 3 tcp 1040 ------- 0 2.0 3.0 10 26
- 0.171148 1 3 tcp 1040 ------- 0 2.0 3.0 10 26
r 0.171388 2 0 tcp 1040 ------- 0 2.0 3.0 18 50
+ 0.171388 0 1 tcp 1040 ------- 0 2.0 3.0 18 50
d 0.171388 0 1 tcp 1040 ------- 0 2.0 3.0 18 50
r 0.17298 1 3 tcp 1040 ------- 0 2.0 3.0 10 26
+ 0.17298 3 1 ack 40 ------- 0 3.0 2.0 10 51
- 0.17298 3 1 ack 40 ------- 0 3.0 2.0 10 51
r 0.174012 3 1 ack 40 ------- 0 3.0 2.0 10 51
+ 0.174012 1 0 ack 40 ------- 0 3.0 2.0 10 51
- 0.174012 1 0 ack 40 ------- 0 3.0 2.0 10 51
r 0.176012 1 0 ack 40 ------- 0 3.0 2.0 9 48
+ 0.176012 0 2 ack 40 ------- 0 3.0 2.0 9 48
- 0.176012 0 2 ack 40 ------- 0 3.0 2.0 9 48
r 0.177044 0 2 ack 40 ------- 0 3.0 2.0 9 48
+ 0.177044 2 0 tcp 1040 ------- 0 2.0 3.0 19 52
- 0.177044 2 0 tcp 1040 ------- 0 2.0 3.0 19 52
+ 0.177044 2 0 tcp 1040 ------- 0 2.0 3.0 20 53
- 0.177788 0 1 tcp 1040 ------- 0 2.0 3.0 13 31
- 0.177876 2 0 tcp 1040 ------- 0 2.0 3.0 20 53
r 0.178876 2 0 tcp 1040 ------- 0 2.0 3.0 19 52
+ 0.178876 0 1 tcp 1040 ------- 0 2.0 3.0 19 52
r 0.179468 0 1 tcp 1040 ------- 0 2.0 3.0 11 28
+ 0.179468 1 3 tcp 1040 ------- 0 2.0 3.0 11 28
- 0.179468 1 3 tcp 1040 ------- 0 2.0 3.0 11 28
r 0.179708 2 0 tcp 1040 ------- 0 2.0 3.0 20 53
+ 0.179708 0 1 tcp 1040 ------- 0 2.0 3.0 20 53
d 0.179708 0 1 tcp 1040 ------- 0 2.0 3.0 20 53
r 0.1813 1 3 tcp 1040 ------- 0 2.0 3.0 11 28
+ 0.1813 3 1 ack 40 ------- 0 3.0 2.0 11 54
- 0.1813 3 1 ack 40 ------- 0 3.0 2.0 11 54
r 0.182332 3 1 ack 40 ------- 0 3.0 2.0 11 54
+ 0.182332 1 0 ack 40 ------- 0 3.0 2.0 11 54
- 0.182332 1 0 ack 40 ------- 0 3.0 2.0 11 54
r 0.184332 1 0 ack 40 ------- 0 3.0 2.0 10 51
+ 0.184332 0 2 ack 40 ------- 0 3.0 2.0 10 51
- 0.184332 0 2 ack 40 ------- 0 3.0 2.0 10 51
r 0.185364 0 2 ack 40 ------- 0 3.0 2.0 10 51
+ 0.185364 2 0 tcp 1040 ------- 0 2.0 3.0 21 55
- 0.185364 2 0 tcp 1040 ------- 0 2.0 3.0 21 55
+ 0.185364 2 0 tcp 1040 ------- 0 2.0 3.0 22 56
- 0.186108 0 1 tcp 1040 ------- 0 2.0 3.0 14 32
- 0.186196 2 0 tcp 1040 ------- 0 2.0 3.0 22 56
r 0.187196 2 0 tcp 1040 ------- 0 2.0 3.0 21 55
+ 0.187196 0 1 tcp 1040 ------- 0 2.0 3.0 21 55
r 0.187788 0 1 tcp 1040 ------- 0 2.0 3.0 12 29
+ 0.187788 1 3 tcp 1040 ------- 0 2.0 3.0 12 29
- 0.187788 1 3 tcp 1040 ------- 0 2.0 3.0 12 29
r 0.188028 2 0 tcp 1040 ------- 0 2.0 3.0 22 56
+ 0.188028 0 1 tcp 1040 ------- 0 2.0 3.0 22 56
d 0.188028 0 1 tcp 1040 ------- 0 2.0 3.0 22 56
r 0.18962 1 3 tcp 1040 ------- 0 2.0 3.0 12 29
+ 0.18962 3 1 ack 40 ------- 0 3.0 2.0 12 57
- 0.18962 3 1 ack 40 ------- 0 3.0 2.0 12 57
r 0.190652 3 1 ack 40 ------- 0 3.0 2.0 12 57
+ 0.190652 1 0 ack 40 ------- 0 3.0 2.0 12 57
- 0.190652 1 0 ack 40 ------- 0 3.0 2.0 12 57
r 0.192652 1 0 ack 40 ------- 0 3.0 2.0 11 54
+ 0.192652 0 2 ack 40 ------- 0 3.0 2.0 11 54
- 0.192652 0 2 ack 40 ------- 0 3.0 2.0 11 54
r 0.193684 0 2 ack 40 ------- 0 3.0 2.0 11 54
+ 0.193684 2 0 tcp 1040 ------- 0 2.0 3.0 23 58
- 0.193684 2 0 tcp 1040 ------- 0 2.0 3.0 23 58
+ 0.193684 2 0 tcp 1040 ------- 0 2.0 3.0 24 59
- 0.194428 0 1 tcp 1040 ------- 0 6.0 7.0 7 34
- 0.194516 2 0 tcp 1040 ------- 0 2.0 3.0 24 59
r 0.195516 2 0 tcp 1040 ------- 0 2.0 3.0 23 58
+ 0.195516 0 1 tcp 1040 ------- 0 2.0 3.0 23 58
r 0.196108 0 1 tcp 1040 ------- 0 2.0 3.0 13 31
+ 0.196108 1 3 tcp 1040 ------- 0 2.0 3.0 13 31
- 0.196108 1 3 tcp 1040 ------- 0 2.0 3.0 13 31
r 0.196348 2 0 tcp 1040 ------- 0 2.0 3.0 24 59
+ 0.196348 0 1 tcp 1040 ------- 0 2.0 3.0 24 59
d 0.196348 0 1 tcp 1040 ------- 0 2.0 3.0 24 59
r 0.19794 1 3 tcp 1040 ------- 0 2.0 3.0 13 31
+ 0.19794 3 1 ack 40 ------- 0 3.0 2.0 13 60
- 0.19794 3 1 ack 40 ------- 0 3.0 2.0 13 60
r 0.198972 3 1 ack 40 ------- 0 3.0 2.0 13 60
+ 0.198972 1 0 ack 40 ------- 0 3.0 2.0 13 60
- 0.198972 1 0 ack 40 ------- 0 3.0 2.0 13 60
r 0.200972 1 0 ack 40 ------- 0 3.0 2.0 12 57
+ 0.200972 0 2 ack 40 ------- 0 3.0 2.0 12 57
- 0.200972 0 2 ack 40 ------- 0 3.0 2.0 12 57
r 0.202004 0 2 ack 40 ------- 0 3.0 2.0 12 57
+ 0.202004 2 0 tcp 1040 ------- 0 2.0 3.0 25 61
- 0.202004 2 0 tcp 1040 ------- 0 2.0 3.0 25 61
+ 0.202004 2 0 tcp 1040 ------- 0 2.0 3.0 26 62
- 0.202748 0 1 tcp 1040 ------- 0 6.0 7.0 8 35
- 0.202836 2 0 tcp 1040 ------- 0 2.0 3.0 26 62
r 0.203836 2 0 tcp 1040 ------- 0 2.0 3.0 25 61
+ 0.203836 0 1 tcp 1040 ------- 0 2.0 3.0 25 61
r 0.204428 0 1 tcp 1040 ------- 0 2.0 3.0 14 32
+ 0.204428 1 3 tcp 1040 ------- 0 2.0 3.0 14 32
- 0.204428 1 3 tcp 1040 ------- 0 2.0 3.0 14 32
r 0.204668 2 0 tcp 1040 ------- 0 2.0 3.0 26 62
+ 0.204668 0 1 tcp 1040 ------- 0 2.0 3.0 26 62
d 0.204668 0 1 tcp 1040 ------- 0 2.0 3.0 26 62
r 0.20626 1 3 tcp 1040 ------- 0 2.0 3.0 14 32
+ 0.20626 3 1 ack 40 ------- 0 3.0 2.0 14 63
- 0.20626 3 1 ack 40 ------- 0 3.0 2.0 14 63
r 0.207292 3 1 ack 40 ------- 0 3.0 2.0 14 63
+ 0.207292 1 0 ack 40 ------- 0 3.0 2.0 14 63
- 0.207292 1 0 ack 40 ------- 0 3.0 2.0 14 63
r 0.209292 1 0 ack 40 ------- 0 3.0 2.0 13 60
+ 0.209292 0 2 ack 40 ------- 0 3.0 2.0 13 60
- 0.209292 0 2 ack 40 ------- 0 3.0 2.0 13 60
r 0.210324 0 2 ack 40 ------- 0 3.0 2.0 13 60
+ 0.210324 2 0 tcp 1040 ------- 0 2.0 3.0 27 64
- 0.210324 2 0 tcp 1040 ------- 0 2.0 3.0 27 64
+ 0.210324 2 0 tcp 1040 ------- 0 2.0 3.0 28 65
- 0.211068 0 1 tcp 1040 ------- 0 6.0 7.0 9 37
- 0.211156 2 0 tcp 1040 ------- 0 2.0 3.0 28 65
r 0.212156 2 0 tcp 1040 ------- 0 2.0 3.0 27 64
+ 0.212156 0 1 tcp 1040 ------- 0 2.0 3.0 27 64
r 0.212748 0 1 tcp 1040 ------- 0 6.0 7.0 7 34
+ 0.212748 1 7 tcp 1040 ------- 0 6.0 7.0 7 34
- 0.212748 1 7 tcp 1040 ------- 0 6.0 7.0 7 34
r 0.212988 2 0 tcp 1040 ------- 0 2.0 3.0 28 65
+ 0.212988 0 1 tcp 1040 ------- 0 2.0 3.0 28 65
d 0.212988 0 1 tcp 1040 ------- 0 2.0 3.0 28 65
r 0.21458 1 7 tcp 1040 ------- 0 6.0 7.0 7 34
+ 0.21458 7 1 ack 40 ------- 0 7.0 6.0 7 66
- 0.21458 7 1 ack 40 ------- 0 7.0 6.0 7 66
r 0.215612 7 1 ack 40 ------- 0 7.0 6.0 7 66
+ 0.215612 1 0 ack 40 ------- 0 7.0 6.0 7 66
- 0.215612 1 0 ack 40 ------- 0 7.0 6.0 7 66
r 0.217612 1 0 ack 40 ------- 0 3.0 2.0 14 63
+ 0.217612 0 2 ack 40 ------- 0 3.0 2.0 14 63
- 0.217612 0 2 ack 40 ------- 0 3.0 2.0 14 63
r 0.218644 0 2 ack 40 ------- 0 3.0 2.0 14 63
+ 0.218644 2 0 tcp 1040 ------- 0 2.0 3.0 29 67
- 0.218644 2 0 tcp 1040 ------- 0 2.0 3.0 29 67
+ 0.218644 2 0 tcp 1040 ------- 0 2.0 3.0 30 68
- 0.219388 0 1 tcp 1040 ------- 0 6.0 7.0 11 40
- 0.219476 2 0 tcp 1040 ------- 0 2.0 3.0 30 68
r 0.220476 2 0 tcp 1040 ------- 0 2.0 3.0 29 67
+ 0.220476 0 1 tcp 1040 ------- 0 2.0 3.0 29 67
r 0.221068 0 1 tcp 1040 ------- 0 6.0 7.0 8 35
+ 0.221068 1 7 tcp 1040 ------- 0 6.0 7.0 8 35
- 0.221068 1 7 tcp 1040 ------- 0 6.0 7.0 8 35
r 0.221308 2 0 tcp 1040 ------- 0 2.0 3.0 30 68
+ 0.221308 0 1 tcp 1040 ------- 0 2.0 3.0 30 68
d 0.221308 0 1 tcp 1040 ------- 0 2.0 3.0 30 68
r 0.2229 1 7 tcp 1040 ------- 0 6.0 7.0 8 35
+ 0.2229 7 1 ack 40 ------- 0 7.0 6.0 8 69
- 0.2229 7 1 ack 40 ------- 0 7.0 6.0 8 69
r 0.223932 7 1 ack 40 ------- 0 7.0 6.0 8 69
+ 0.223932 1 0 ack 40 ------- 0 7.0 6.0 8 69
- 0.223932 1 0 ack 40 ------- 0 7.0 6.0 8 69
r 0.225932 1 0 ack 40 ------- 0 7.0 6.0 7 66
+ 0.225932 0 6 ack 40 ------- 0 7.0 6.0 7 66
- 0.225932 0 6 ack 40 ------- 0 7.0 6.0 7 66
r 0.226964 0 6 ack 40 ------- 0 7.0 6.0 7 66
+ 0.226964 6 0 tcp 1040 ------- 0 6.0 7.0 15 70
- 0.226964 6 0 tcp 1040 ------- 0 6.0 7.0 15 70
+ 0.226964 6 0 tcp 1040 ------- 0 6.0 7.0 16 71
- 0.227708 0 1 tcp 1040 ------- 0 6.0 7.0 13 43
- 0.227796 6 0 tcp 1040 ------- 0 6.0 7.0 16 71
r 0.228796 6 0 tcp 1040 ------- 0 6.0 7.0 15 70
+ 0.228796 0 1 tcp 1040 ------- 0 6.0 7.0 15 70
r 0.229388 0 1 tcp 1040 ------- 0 6.0 7.0 9 37
+ 0.229388 1 7 tcp 1040 ------- 0 6.0 7.0 9 37
- 0.229388 1 7 tcp 1040 ------- 0 6.0 7.0 9 37
r 0.229628 6 0 tcp 1040 ------- 0 6.0 7.0 16 71
+ 0.229628 0 1 tcp 1040 ------- 0 6.0 7.0 16 71
d 0.229628 0 1 tcp 1040 ------- 0 6.0 7.0 16 71
r 0.23122 1 7 tcp 1040 ------- 0 6.0 7.0 9 37
+ 0.23122 7 1 ack 40 ------- 0 7.0 6.0 9 72
- 0.23122 7 1 ack 40 ------- 0 7.0 6.0 9 72
r 0.232252 7 1 ack 40 ------- 0 7.0 6.0 9 72
+ 0.232252 1 0 ack 40 ------- 0 7.0 6.0 9 72
- 0.232252 1 0 ack 40 ------- 0 7.0 6.0 9 72
r 0.234252 1 0 ack 40 ------- 0 7.0 6.0 8 69
+ 0.234252 0 6 ack 40 ------- 0 7.0 6.0 8 69
- 0.234252 0 6 ack 40 ------- 0 7.0 6.0 8 69
r 0.235284 0 6 ack 40 ------- 0 7.0 6.0 8 69
+ 0.235284 6 0 tcp 1040 ------- 0 6.0 7.0 17 73
- 0.235284 6 0 tcp 1040 ------- 0 6.0 7.0 17 73
+ 0.235284 6 0 tcp 1040 ------- 0 6.0 7.0 18 74
- 0.236028 0 1 tcp 1040 ------- 0 2.0 3.0 15 46
- 0.236116 6 0 tcp 1040 ------- 0 6.0 7.0 18 74
r 0.237116 6 0 tcp 1040 ------- 0 6.0 7.0 17 73
+ 0.237116 0 1 tcp 1040 ------- 0 6.0 7.0 17 73
r 0.237708 0 1 tcp 1040 ------- 0 6.0 7.0 11 40
+ 0.237708 1 7 tcp 1040 ------- 0 6.0 7.0 11 40
- 0.237708 1 7 tcp 1040 ------- 0 6.0 7.0 11 40
r 0.237948 6 0 tcp 1040 ------- 0 6.0 7.0 18 74
+ 0.237948 0 1 tcp 1040 ------- 0 6.0 7.0 18 74
d 0.237948 0 1 tcp 1040 ------- 0 6.0 7.0 18 74
r 0.23954 1 7 tcp 1040 ------- 0 6.0 7.0 11 40
+ 0.23954 7 1 ack 40 ------- 0 7.0 6.0 9 75
- 0.23954 7 1 ack 40 ------- 0 7.0 6.0 9 75
r 0.240572 7 1 ack 40 ------- 0 7.0 6.0 9 75
+ 0.240572 1 0 ack 40 ------- 0 7.0 6.0 9 75
- 0.240572 1 0 ack 40 ------- 0 7.0 6.0 9 75
r 0.242572 1 0 ack 40 ------- 0 7.0 6.0 9 72
+ 0.242572 0 6 ack 40 ------- 0 7.0 6.0 9 72
- 0.242572 0 6 ack 40 ------- 0 7.0 6.0 9 72
r 0.243604 0 6 ack 40 ------- 0 7.0 6.0 9 72
+ 0.243604 6 0 tcp 1040 ------- 0 6.0 7.0 19 76
- 0.243604 6 0 tcp 1040 ------- 0 6.0 7.0 19 76
+ 0.243604 6 0 tcp 1040 ------- 0 6.0 7.0 20 77
- 0.244348 0 1 tcp 1040 ------- 0 2.0 3.0 17 49
- 0.244436 6 0 tcp 1040 ------- 0 6.0 7.0 20 77
r 0.245436 6 0 tcp 1040 ------- 0 6.0 7.0 19 76
+ 0.245436 0 1 tcp 1040 ------- 0 6.0 7.0 19 76
r 0.246028 0 1 tcp 1040 ------- 0 6.0 7.0 13 43
+ 0.246028 1 7 tcp 1040 ------- 0 6.0 7.0 13 43
- 0.246028 1 7 tcp 1040 ------- 0 6.0 7.0 13 43
r 0.246268 6 0 tcp 1040 ------- 0 6.0 7.0 20 77
+ 0.246268 0 1 tcp 1040 ------- 0 6.0 7.0 20 77
d 0.246268 0 1 tcp 1040 ------- 0 6.0 7.0 20 77
r 0.24786 1 7 tcp 1040 ------- 0 6.0 7.0 13 43
+ 0.24786 7 1 ack 40 ------- 0 7.0 6.0 9 78
- 0.24786 7 1 ack 40 ------- 0 7.0 6.0 9 78
r 0.248892 7 1 ack 40 ------- 0 7.0 6.0 9 78
+ 0.248892 1 0 ack 40 ------- 0 7.0 6.0 9 78
- 0.248892 1 0 ack 40 ------- 0 7.0 6.0 9 78
r 0.250892 1 0 ack 40 ------- 0 7.0 6.0 9 75
+ 0.250892 0 6 ack 40 ------- 0 7.0 6.0 9 75
- 0.250892 0 6 ack 40 ------- 0 7.0 6.0 9 75
r 0.251924 0 6 ack 40 ------- 0 7.0 6.0 9 75
+ 0.251924 6 0 tcp 1040 ------- 0 6.0 7.0 21 79
- 0.251924 6 0 tcp 1040 ------- 0 6.0 7.0 21 79
- 0.252668 0 1 tcp 1040 ------- 0 2.0 3.0 19 52
r 0.253756 6 0 tcp 1040 ------- 0 6.0 7.0 21 79
+ 0.253756 0 1 tcp 1040 ------- 0 6.0 7.0 21 79
r 0.254348 0 1 tcp 1040 ------- 0 2.0 3.0 15 46
+ 0.254348 1 3 tcp 1040 ------- 0 2.0 3.0 15 46
- 0.254348 1 3 tcp 1040 ------- 0 2.0 3.0 15 46
r 0.25618 1 3 tcp 1040 ------- 0 2.0 3.0 15 46
+ 0.25618 3 1 ack 40 ------- 0 3.0 2.0 15 80
- 0.25618 3 1 ack 40 ------- 0 3.0 2.0 15 80
r 0.257212 3 1 ack 40 ------- 0 3.0 2.0 15 80
+ 0.257212 1 0 ack 40 ------- 0 3.0 2.0 15 80
- 0.257212 1 0 ack 40 ------- 0 3.0 2.0 15 80
r 0.259212 1 0 ack 40 ------- 0 7.0 6.0 9 78
+ 0.259212 0 6 ack 40 ------- 0 7.0 6.0 9 78
- 0.259212 0 6 ack 40 ------- 0 7.0 6.0 9 78
r 0.260244 0 6 ack 40 ------- 0 7.0 6.0 9 78
+ 0.260244 6 0 tcp 1040 ------- 0 6.0 7.0 22 81
- 0.260244 6 0 tcp 1040 ------- 0 6.0 7.0 22 81
- 0.260988 0 1 tcp 1040 ------- 0 2.0 3.0 21 55
r 0.262076 6 0 tcp 1040 ------- 0 6.0 7.0 22 81
+ 0.262076 0 1 tcp 1040 ------- 0 6.0 7.0 22 81
r 0.262668 0 1 tcp 1040 ------- 0 2.0 3.0 17 49
+ 0.262668 1 3 tcp 1040 ------- 0 2.0 3.0 17 49
- 0.262668 1 3 tcp 1040 ------- 0 2.0 3.0 17 49
r 0.2645 1 3 tcp 1040 ------- 0 2.0 3.0 17 49
+ 0.2645 3 1 ack 40 ------- 0 3.0 2.0 15 82
- 0.2645 3 1 ack 40 ------- 0 3.0 2.0 15 82
r 0.265532 3 1 ack 40 ------- 0 3.0 2.0 15 82
+ 0.265532 1 0 ack 40 ------- 0 3.0 2.0 15 82
- 0.265532 1 0 ack 40 ------- 0 3.0 2.0 15 82
r 0.267532 1 0 ack 40 ------- 0 3.0 2.0 15 80
+ 0.267532 0 2 ack 40 ------- 0 3.0 2.0 15 80
- 0.267532 0 2 ack 40 ------- 0 3.0 2.0 15 80
r 0.268564 0 2 ack 40 ------- 0 3.0 2.0 15 80
+ 0.268564 2 0 tcp 1040 ------- 0 2.0 3.0 31 83
- 0.268564 2 0 tcp 1040 ------- 0 2.0 3.0 31 83
+ 0.268564 2 0 tcp 1040 ------- 0 2.0 3.0 32 84
- 0.269308 0 1 tcp 1040 ------- 0 2.0 3.0 23 58
- 0.269396 2 0 tcp 1040 ------- 0 2.0 3.0 32 84
r 0.270396 2 0 tcp 1040 ------- 0 2.0 3.0 31 83
+ 0.270396 0 1 tcp 1040 ------- 0 2.0 3.0 31 83
r 0.270988 0 1 tcp 1040 ------- 0 2.0 3.0 19 52
+ 0.270988 1 3 tcp 1040 ------- 0 2.0 3.0 19 52
- 0.270988 1 3 tcp 1040 ------- 0 2.0 3.0 19 52
r 0.271228 2 0 tcp 1040 ------- 0 2.0 3.0 32 84
+ 0.271228 0 1 tcp 1040 ------- 0 2.0 3.0 32 84
d 0.271228 0 1 tcp 1040 ------- 0 2.0 3.0 32 84
r 0.27282 1 3 tcp 1040 ------- 0 2.0 3.0 19 52