+ 0.5 2 1 cbr 1000 ------- 2 2.0 3.0 0 0
- 0.5 2 1 cbr 1000 ------- 2 2.0 3.0 0 0
+ 0.508 2 1 cbr 1000 ------- 2 2.0 3.0 1 1
- 0.508 2 1 cbr 1000 ------- 2 2.0 3.0 1 1
r 0.514 2 1 cbr 1000 ------- 2 2.0 3.0 0 0
+ 0.514 1 4 cbr 1000 ------- 2 2.0 3.0 0 0
- 0.514 1 4 cbr 1000 ------- 2 2.0 3.0 0 0
+ 0.516 2 1 cbr 1000 ------- 2 2.0 3.0 2 2
- 0.516 2 1 cbr 1000 ------- 2 2.0 3.0 2 2
r 0.522 2 1 cbr 1000 ------- 2 2.0 3.0 1 1
+ 0.522 1 4 cbr 1000 ------- 2 2.0 3.0 1 1
- 0.522 1 4 cbr 1000 ------- 2 2.0 3.0 1 1
+ 0.524 2 1 cbr 1000 ------- 2 2.0 3.0 3 3
- 0.524 2 1 cbr 1000 ------- 2 2.0 3.0 3 3
r 0.53 2 1 cbr 1000 ------- 2 2.0 3.0 2 2
+ 0.53 1 4 cbr 1000 ------- 2 2.0 3.0 2 2
- 0.53 1 4 cbr 1000 ------- 2 2.0 3.0 2 2
+ 0.532 2 1 cbr 1000 ------- 2 2.0 3.0 4 4
- 0.532 2 1 cbr 1000 ------- 2 2.0 3.0 4 4
r 0.538 1 4 cbr 1000 ------- 2 2.0 3.0 0 0
+ 0.538 4 3 cbr 1000 ------- 2 2.0 3.0 0 0
- 0.538 4 3 cbr 1000 ------- 2 2.0 3.0 0 0
r 0.538 2 1 cbr 1000 ------- 2 2.0 3.0 3 3
+ 0.538 1 4 cbr 1000 ------- 2 2.0 3.0 3 3
- 0.538 1 4 cbr 1000 ------- 2 2.0 3.0 3 3
+ 0.54 2 1 cbr 1000 ------- 2 2.0 3.0 5 5
- 0.54 2 1 cbr 1000 ------- 2 2.0 3.0 5 5
r 0.546 1 4 cbr 1000 ------- 2 2.0 3.0 1 1
+ 0.546 4 3 cbr 1000 ------- 2 2.0 3.0 1 1
- 0.546 4 3 cbr 1000 ------- 2 2.0 3.0 1 1
r 0.546 2 1 cbr 1000 ------- 2 2.0 3.0 4 4
+ 0.546 1 4 cbr 1000 ------- 2 2.0 3.0 4 4
- 0.546 1 4 cbr 1000 ------- 2 2.0 3.0 4 4
+ 0.548 2 1 cbr 1000 ------- 2 2.0 3.0 6 6
- 0.548 2 1 cbr 1000 ------- 2 2.0 3.0 6 6
r 0.552 4 3 cbr 1000 ------- 2 2.0 3.0 0 0
r 0.554 1 4 cbr 1000 ------- 2 2.0 3.0 2 2
+ 0.554 4 3 cbr 1000 ------- 2 2.0 3.0 2 2
- 0.554 4 3 cbr 1000 ------- 2 2.0 3.0 2 2
r 0.554 2 1 cbr 1000 ------- 2 2.0 3.0 5 5
+ 0.554 1 4 cbr 1000 ------- 2 2.0 3.0 5 5
- 0.554 1 4 cbr 1000 ------- 2 2.0 3.0 5 5
+ 0.556 2 1 cbr 1000 ------- 2 2.0 3.0 7 7
- 0.556 2 1 cbr 1000 ------- 2 2.0 3.0 7 7
r 0.56 4 3 cbr 1000 ------- 2 2.0 3.0 1 1
r 0.562 1 4 cbr 1000 ------- 2 2.0 3.0 3 3
+ 0.562 4 3 cbr 1000 ------- 2 2.0 3.0 3 3
- 0.562 4 3 cbr 1000 ------- 2 2.0 3.0 3 3
r 0.562 2 1 cbr 1000 ------- 2 2.0 3.0 6 6
+ 0.562 1 4 cbr 1000 ------- 2 2.0 3.0 6 6
- 0.562 1 4 cbr 1000 ------- 2 2.0 3.0 6 6
+ 0.564 2 1 cbr 1000 ------- 2 2.0 3.0 8 8
- 0.564 2 1 cbr 1000 ------- 2 2.0 3.0 8 8
r 0.568 4 3 cbr 1000 ------- 2 2.0 3.0 2 2
r 0.57 1 4 cbr 1000 ------- 2 2.0 3.0 4 4
+ 0.57 4 3 cbr 1000 ------- 2 2.0 3.0 4 4
- 0.57 4 3 cbr 1000 ------- 2 2.0 3.0 4 4
r 0.57 2 1 cbr 1000 ------- 2 2.0 3.0 7 7
+ 0.57 1 4 cbr 1000 ------- 2 2.0 3.0 7 7
- 0.57 1 4 cbr 1000 ------- 2 2.0 3.0 7 7
+ 0.572 2 1 cbr 1000 ------- 2 2.0 3.0 9 9
- 0.572 2 1 cbr 1000 ------- 2 2.0 3.0 9 9
r 0.576 4 3 cbr 1000 ------- 2 2.0 3.0 3 3
r 0.578 1 4 cbr 1000 ------- 2 2.0 3.0 5 5
+ 0.578 4 3 cbr 1000 ------- 2 2.0 3.0 5 5
- 0.578 4 3 cbr 1000 ------- 2 2.0 3.0 5 5
r 0.578 2 1 cbr 1000 ------- 2 2.0 3.0 8 8
+ 0.578 1 4 cbr 1000 ------- 2 2.0 3.0 8 8
- 0.578 1 4 cbr 1000 ------- 2 2.0 3.0 8 8
+ 0.58 2 1 cbr 1000 ------- 2 2.0 3.0 10 10
- 0.58 2 1 cbr 1000 ------- 2 2.0 3.0 10 10
r 0.584 4 3 cbr 1000 ------- 2 2.0 3.0 4 4
r 0.586 1 4 cbr 1000 ------- 2 2.0 3.0 6 6
+ 0.586 4 3 cbr 1000 ------- 2 2.0 3.0 6 6
- 0.586 4 3 cbr 1000 ------- 2 2.0 3.0 6 6
r 0.586 2 1 cbr 1000 ------- 2 2.0 3.0 9 9
+ 0.586 1 4 cbr 1000 ------- 2 2.0 3.0 9 9
- 0.586 1 4 cbr 1000 ------- 2 2.0 3.0 9 9
+ 0.588 2 1 cbr 1000 ------- 2 2.0 3.0 11 11
- 0.588 2 1 cbr 1000 ------- 2 2.0 3.0 11 11
r 0.592 4 3 cbr 1000 ------- 2 2.0 3.0 5 5
r 0.594 1 4 cbr 1000 ------- 2 2.0 3.0 7 7
+ 0.594 4 3 cbr 1000 ------- 2 2.0 3.0 7 7
- 0.594 4 3 cbr 1000 ------- 2 2.0 3.0 7 7
r 0.594 2 1 cbr 1000 ------- 2 2.0 3.0 10 10
+ 0.594 1 4 cbr 1000 ------- 2 2.0 3.0 10 10
- 0.594 1 4 cbr 1000 ------- 2 2.0 3.0 10 10
+ 0.596 2 1 cbr 1000 ------- 2 2.0 3.0 12 12
- 0.596 2 1 cbr 1000 ------- 2 2.0 3.0 12 12
r 0.6 4 3 cbr 1000 ------- 2 2.0 3.0 6 6
r 0.602 1 4 cbr 1000 ------- 2 2.0 3.0 8 8
+ 0.602 4 3 cbr 1000 ------- 2 2.0 3.0 8 8
- 0.602 4 3 cbr 1000 ------- 2 2.0 3.0 8 8
r 0.602 2 1 cbr 1000 ------- 2 2.0 3.0 11 11
+ 0.602 1 4 cbr 1000 ------- 2 2.0 3.0 11 11
- 0.602 1 4 cbr 1000 ------- 2 2.0 3.0 11 11
+ 0.604 2 1 cbr 1000 ------- 2 2.0 3.0 13 13
- 0.604 2 1 cbr 1000 ------- 2 2.0 3.0 13 13
r 0.608 4 3 cbr 1000 ------- 2 2.0 3.0 7 7
r 0.61 1 4 cbr 1000 ------- 2 2.0 3.0 9 9
+ 0.61 4 3 cbr 1000 ------- 2 2.0 3.0 9 9
- 0.61 4 3 cbr 1000 ------- 2 2.0 3.0 9 9
r 0.61 2 1 cbr 1000 ------- 2 2.0 3.0 12 12
+ 0.61 1 4 cbr 1000 ------- 2 2.0 3.0 12 12
- 0.61 1 4 cbr 1000 ------- 2 2.0 3.0 12 12
+ 0.612 2 1 cbr 1000 ------- 2 2.0 3.0 14 14
- 0.612 2 1 cbr 1000 ------- 2 2.0 3.0 14 14
r 0.616 4 3 cbr 1000 ------- 2 2.0 3.0 8 8
r 0.618 1 4 cbr 1000 ------- 2 2.0 3.0 10 10
+ 0.618 4 3 cbr 1000 ------- 2 2.0 3.0 10 10
- 0.618 4 3 cbr 1000 ------- 2 2.0 3.0 10 10
r 0.618 2 1 cbr 1000 ------- 2 2.0 3.0 13 13
+ 0.618 1 4 cbr 1000 ------- 2 2.0 3.0 13 13
- 0.618 1 4 cbr 1000 ------- 2 2.0 3.0 13 13
+ 0.62 2 1 cbr 1000 ------- 2 2.0 3.0 15 15
- 0.62 2 1 cbr 1000 ------- 2 2.0 3.0 15 15
r 0.624 4 3 cbr 1000 ------- 2 2.0 3.0 9 9
r 0.626 1 4 cbr 1000 ------- 2 2.0 3.0 11 11
+ 0.626 4 3 cbr 1000 ------- 2 2.0 3.0 11 11
- 0.626 4 3 cbr 1000 ------- 2 2.0 3.0 11 11
r 0.626 2 1 cbr 1000 ------- 2 2.0 3.0 14 14
+ 0.626 1 4 cbr 1000 ------- 2 2.0 3.0 14 14
- 0.626 1 4 cbr 1000 ------- 2 2.0 3.0 14 14
+ 0.628 2 1 cbr 1000 ------- 2 2.0 3.0 16 16
- 0.628 2 1 cbr 1000 ------- 2 2.0 3.0 16 16
r 0.632 4 3 cbr 1000 ------- 2 2.0 3.0 10 10
r 0.634 1 4 cbr 1000 ------- 2 2.0 3.0 12 12
+ 0.634 4 3 cbr 1000 ------- 2 2.0 3.0 12 12
- 0.634 4 3 cbr 1000 ------- 2 2.0 3.0 12 12
r 0.634 2 1 cbr 1000 ------- 2 2.0 3.0 15 15
+ 0.634 1 4 cbr 1000 ------- 2 2.0 3.0 15 15
- 0.634 1 4 cbr 1000 ------- 2 2.0 3.0 15 15
+ 0.636 2 1 cbr 1000 ------- 2 2.0 3.0 17 17
- 0.636 2 1 cbr 1000 ------- 2 2.0 3.0 17 17
r 0.64 4 3 cbr 1000 ------- 2 2.0 3.0 11 11
r 0.642 1 4 cbr 1000 ------- 2 2.0 3.0 13 13
+ 0.642 4 3 cbr 1000 ------- 2 2.0 3.0 13 13
- 0.642 4 3 cbr 1000 ------- 2 2.0 3.0 13 13
r 0.642 2 1 cbr 1000 ------- 2 2.0 3.0 16 16
+ 0.642 1 4 cbr 1000 ------- 2 2.0 3.0 16 16
- 0.642 1 4 cbr 1000 ------- 2 2.0 3.0 16 16
+ 0.644 2 1 cbr 1000 ------- 2 2.0 3.0 18 18
- 0.644 2 1 cbr 1000 ------- 2 2.0 3.0 18 18
r 0.648 4 3 cbr 1000 ------- 2 2.0 3.0 12 12
r 0.65 1 4 cbr 1000 ------- 2 2.0 3.0 14 14
+ 0.65 4 3 cbr 1000 ------- 2 2.0 3.0 14 14
- 0.65 4 3 cbr 1000 ------- 2 2.0 3.0 14 14
r 0.65 2 1 cbr 1000 ------- 2 2.0 3.0 17 17
+ 0.65 1 4 cbr 1000 ------- 2 2.0 3.0 17 17
- 0.65 1 4 cbr 1000 ------- 2 2.0 3.0 17 17
+ 0.652 2 1 cbr 1000 ------- 2 2.0 3.0 19 19
- 0.652 2 1 cbr 1000 ------- 2 2.0 3.0 19 19
r 0.656 4 3 cbr 1000 ------- 2 2.0 3.0 13 13
r 0.658 1 4 cbr 1000 ------- 2 2.0 3.0 15 15
+ 0.658 4 3 cbr 1000 ------- 2 2.0 3.0 15 15
- 0.658 4 3 cbr 1000 ------- 2 2.0 3.0 15 15
r 0.658 2 1 cbr 1000 ------- 2 2.0 3.0 18 18
+ 0.658 1 4 cbr 1000 ------- 2 2.0 3.0 18 18
- 0.658 1 4 cbr 1000 ------- 2 2.0 3.0 18 18
+ 0.66 2 1 cbr 1000 ------- 2 2.0 3.0 20 20
- 0.66 2 1 cbr 1000 ------- 2 2.0 3.0 20 20
r 0.664 4 3 cbr 1000 ------- 2 2.0 3.0 14 14
r 0.666 1 4 cbr 1000 ------- 2 2.0 3.0 16 16
+ 0.666 4 3 cbr 1000 ------- 2 2.0 3.0 16 16
- 0.666 4 3 cbr 1000 ------- 2 2.0 3.0 16 16
r 0.666 2 1 cbr 1000 ------- 2 2.0 3.0 19 19
+ 0.666 1 4 cbr 1000 ------- 2 2.0 3.0 19 19
- 0.666 1 4 cbr 1000 ------- 2 2.0 3.0 19 19
+ 0.668 2 1 cbr 1000 ------- 2 2.0 3.0 21 21
- 0.668 2 1 cbr 1000 ------- 2 2.0 3.0 21 21
r 0.672 4 3 cbr 1000 ------- 2 2.0 3.0 15 15
r 0.674 1 4 cbr 1000 ------- 2 2.0 3.0 17 17
+ 0.674 4 3 cbr 1000 ------- 2 2.0 3.0 17 17
- 0.674 4 3 cbr 1000 ------- 2 2.0 3.0 17 17
r 0.674 2 1 cbr 1000 ------- 2 2.0 3.0 20 20
+ 0.674 1 4 cbr 1000 ------- 2 2.0 3.0 20 20
- 0.674 1 4 cbr 1000 ------- 2 2.0 3.0 20 20
+ 0.676 2 1 cbr 1000 ------- 2 2.0 3.0 22 22
- 0.676 2 1 cbr 1000 ------- 2 2.0 3.0 22 22
r 0.68 4 3 cbr 1000 ------- 2 2.0 3.0 16 16
r 0.682 1 4 cbr 1000 ------- 2 2.0 3.0 18 18
+ 0.682 4 3 cbr 1000 ------- 2 2.0 3.0 18 18
- 0.682 4 3 cbr 1000 ------- 2 2.0 3.0 18 18
r 0.682 2 1 cbr 1000 ------- 2 2.0 3.0 21 21
+ 0.682 1 4 cbr 1000 ------- 2 2.0 3.0 21 21
- 0.682 1 4 cbr 1000 ------- 2 2.0 3.0 21 21
+ 0.684 2 1 cbr 1000 ------- 2 2.0 3.0 23 23
- 0.684 2 1 cbr 1000 ------- 2 2.0 3.0 23 23
r 0.688 4 3 cbr 1000 ------- 2 2.0 3.0 17 17
r 0.69 1 4 cbr 1000 ------- 2 2.0 3.0 19 19
+ 0.69 4 3 cbr 1000 ------- 2 2.0 3.0 19 19
- 0.69 4 3 cbr 1000 ------- 2 2.0 3.0 19 19
r 0.69 2 1 cbr 1000 ------- 2 2.0 3.0 22 22
+ 0.69 1 4 cbr 1000 ------- 2 2.0 3.0 22 22
- 0.69 1 4 cbr 1000 ------- 2 2.0 3.0 22 22
+ 0.692 2 1 cbr 1000 ------- 2 2.0 3.0 24 24
- 0.692 2 1 cbr 1000 ------- 2 2.0 3.0 24 24
r 0.696 4 3 cbr 1000 ------- 2 2.0 3.0 18 18
r 0.698 1 4 cbr 1000 ------- 2 2.0 3.0 20 20
+ 0.698 4 3 cbr 1000 ------- 2 2.0 3.0 20 20
- 0.698 4 3 cbr 1000 ------- 2 2.0 3.0 20 20
r 0.698 2 1 cbr 1000 ------- 2 2.0 3.0 23 23
+ 0.698 1 4 cbr 1000 ------- 2 2.0 3.0 23 23
- 0.698 1 4 cbr 1000 ------- 2 2.0 3.0 23 23
+ 0.7 2 1 cbr 1000 ------- 2 2.0 3.0 25 25
- 0.7 2 1 cbr 1000 ------- 2 2.0 3.0 25 25
r 0.704 4 3 cbr 1000 ------- 2 2.0 3.0 19 19
r 0.706 1 4 cbr 1000 ------- 2 2.0 3.0 21 21
+ 0.706 4 3 cbr 1000 ------- 2 2.0 3.0 21 21
- 0.706 4 3 cbr 1000 ------- 2 2.0 3.0 21 21
r 0.706 2 1 cbr 1000 ------- 2 2.0 3.0 24 24
+ 0.706 1 4 cbr 1000 ------- 2 2.0 3.0 24 24
- 0.706 1 4 cbr 1000 ------- 2 2.0 3.0 24 24
+ 0.708 2 1 cbr 1000 ------- 2 2.0 3.0 26 26
- 0.708 2 1 cbr 1000 ------- 2 2.0 3.0 26 26
r 0.712 4 3 cbr 1000 ------- 2 2.0 3.0 20 20
r 0.714 1 4 cbr 1000 ------- 2 2.0 3.0 22 22
+ 0.714 4 3 cbr 1000 ------- 2 2.0 3.0 22 22
- 0.714 4 3 cbr 1000 ------- 2 2.0 3.0 22 22
r 0.714 2 1 cbr 1000 ------- 2 2.0 3.0 25 25
+ 0.714 1 4 cbr 1000 ------- 2 2.0 3.0 25 25
- 0.714 1 4 cbr 1000 ------- 2 2.0 3.0 25 25
+ 0.716 2 1 cbr 1000 ------- 2 2.0 3.0 27 27
- 0.716 2 1 cbr 1000 ------- 2 2.0 3.0 27 27
r 0.72 4 3 cbr 1000 ------- 2 2.0 3.0 21 21
r 0.722 1 4 cbr 1000 ------- 2 2.0 3.0 23 23
+ 0.722 4 3 cbr 1000 ------- 2 2.0 3.0 23 23
- 0.722 4 3 cbr 1000 ------- 2 2.0 3.0 23 23
r 0.722 2 1 cbr 1000 ------- 2 2.0 3.0 26 26
+ 0.722 1 4 cbr 1000 ------- 2 2.0 3.0 26 26
- 0.722 1 4 cbr 1000 ------- 2 2.0 3.0 26 26
+ 0.724 2 1 cbr 1000 ------- 2 2.0 3.0 28 28
- 0.724 2 1 cbr 1000 ------- 2 2.0 3.0 28 28
r 0.728 4 3 cbr 1000 ------- 2 2.0 3.0 22 22
r 0.73 1 4 cbr 1000 ------- 2 2.0 3.0 24 24
+ 0.73 4 3 cbr 1000 ------- 2 2.0 3.0 24 24
- 0.73 4 3 cbr 1000 ------- 2 2.0 3.0 24 24
r 0.73 2 1 cbr 1000 ------- 2 2.0 3.0 27 27
+ 0.73 1 4 cbr 1000 ------- 2 2.0 3.0 27 27
- 0.73 1 4 cbr 1000 ------- 2 2.0 3.0 27 27
+ 0.732 2 1 cbr 1000 ------- 2 2.0 3.0 29 29
- 0.732 2 1 cbr 1000 ------- 2 2.0 3.0 29 29
r 0.736 4 3 cbr 1000 ------- 2 2.0 3.0 23 23
r 0.738 1 4 cbr 1000 ------- 2 2.0 3.0 25 25
+ 0.738 4 3 cbr 1000 ------- 2 2.0 3.0 25 25
- 0.738 4 3 cbr 1000 ------- 2 2.0 3.0 25 25
r 0.738 2 1 cbr 1000 ------- 2 2.0 3.0 28 28
+ 0.738 1 4 cbr 1000 ------- 2 2.0 3.0 28 28
- 0.738 1 4 cbr 1000 ------- 2 2.0 3.0 28 28
+ 0.74 2 1 cbr 1000 ------- 2 2.0 3.0 30 30
- 0.74 2 1 cbr 1000 ------- 2 2.0 3.0 30 30
r 0.744 4 3 cbr 1000 ------- 2 2.0 3.0 24 24
r 0.746 1 4 cbr 1000 ------- 2 2.0 3.0 26 26
+ 0.746 4 3 cbr 1000 ------- 2 2.0 3.0 26 26
- 0.746 4 3 cbr 1000 ------- 2 2.0 3.0 26 26
r 0.746 2 1 cbr 1000 ------- 2 2.0 3.0 29 29
+ 0.746 1 4 cbr 1000 ------- 2 2.0 3.0 29 29
- 0.746 1 4 cbr 1000 ------- 2 2.0 3.0 29 29
+ 0.748 2 1 cbr 1000 ------- 2 2.0 3.0 31 31
- 0.748 2 1 cbr 1000 ------- 2 2.0 3.0 31 31
r 0.752 4 3 cbr 1000 ------- 2 2.0 3.0 25 25
r 0.754 1 4 cbr 1000 ------- 2 2.0 3.0 27 27
+ 0.754 4 3 cbr 1000 ------- 2 2.0 3.0 27 27
- 0.754 4 3 cbr 1000 ------- 2 2.0 3.0 27 27
r 0.754 2 1 cbr 1000 ------- 2 2.0 3.0 30 30
+ 0.754 1 4 cbr 1000 ------- 2 2.0 3.0 30 30
- 0.754 1 4 cbr 1000 ------- 2 2.0 3.0 30 30
+ 0.756 2 1 cbr 1000 ------- 2 2.0 3.0 32 32
- 0.756 2 1 cbr 1000 ------- 2 2.0 3.0 32 32
r 0.76 4 3 cbr 1000 ------- 2 2.0 3.0 26 26
r 0.762 1 4 cbr 1000 ------- 2 2.0 3.0 28 28
+ 0.762 4 3 cbr 1000 ------- 2 2.0 3.0 28 28
- 0.762 4 3 cbr 1000 ------- 2 2.0 3.0 28 28
r 0.762 2 1 cbr 1000 ------- 2 2.0 3.0 31 31
+ 0.762 1 4 cbr 1000 ------- 2 2.0 3.0 31 31
- 0.762 1 4 cbr 1000 ------- 2 2.0 3.0 31 31
+ 0.764 2 1 cbr 1000 ------- 2 2.0 3.0 33 33
- 0.764 2 1 cbr 1000 ------- 2 2.0 3.0 33 33
r 0.768 4 3 cbr 1000 ------- 2 2.0 3.0 27 27
r 0.77 1 4 cbr 1000 ------- 2 2.0 3.0 29 29
+ 0.77 4 3 cbr 1000 ------- 2 2.0 3.0 29 29
- 0.77 4 3 cbr 1000 ------- 2 2.0 3.0 29 29
r 0.77 2 1 cbr 1000 ------- 2 2.0 3.0 32 32
+ 0.77 1 4 cbr 1000 ------- 2 2.0 3.0 32 32
- 0.77 1 4 cbr 1000 ------- 2 2.0 3.0 32 32
+ 0.772 2 1 cbr 1000 ------- 2 2.0 3.0 34 34
- 0.772 2 1 cbr 1000 ------- 2 2.0 3.0 34 34
r 0.776 4 3 cbr 1000 ------- 2 2.0 3.0 28 28
r 0.778 1 4 cbr 1000 ------- 2 2.0 3.0 30 30
+ 0.778 4 3 cbr 1000 ------- 2 2.0 3.0 30 30
- 0.778 4 3 cbr 1000 ------- 2 2.0 3.0 30 30
r 0.778 2 1 cbr 1000 ------- 2 2.0 3.0 33 33
+ 0.778 1 4 cbr 1000 ------- 2 2.0 3.0 33 33
- 0.778 1 4 cbr 1000 ------- 2 2.0 3.0 33 33
+ 0.78 2 1 cbr 1000 ------- 2 2.0 3.0 35 35
- 0.78 2 1 cbr 1000 ------- 2 2.0 3.0 35 35
r 0.784 4 3 cbr 1000 ------- 2 2.0 3.0 29 29
r 0.786 1 4 cbr 1000 ------- 2 2.0 3.0 31 31
+ 0.786 4 3 cbr 1000 ------- 2 2.0 3.0 31 31
- 0.786 4 3 cbr 1000 ------- 2 2.0 3.0 31 31
r 0.786 2 1 cbr 1000 ------- 2 2.0 3.0 34 34
+ 0.786 1 4 cbr 1000 ------- 2 2.0 3.0 34 34
- 0.786 1 4 cbr 1000 ------- 2 2.0 3.0 34 34
+ 0.788 2 1 cbr 1000 ------- 2 2.0 3.0 36 36
- 0.788 2 1 cbr 1000 ------- 2 2.0 3.0 36 36
r 0.792 4 3 cbr 1000 ------- 2 2.0 3.0 30 30
r 0.794 1 4 cbr 1000 ------- 2 2.0 3.0 32 32
+ 0.794 4 3 cbr 1000 ------- 2 2.0 3.0 32 32
- 0.794 4 3 cbr 1000 ------- 2 2.0 3.0 32 32
r 0.794 2 1 cbr 1000 ------- 2 2.0 3.0 35 35
+ 0.794 1 4 cbr 1000 ------- 2 2.0 3.0 35 35
- 0.794 1 4 cbr 1000 ------- 2 2.0 3.0 35 35
+ 0.796 2 1 cbr 1000 ------- 2 2.0 3.0 37 37
- 0.796 2 1 cbr 1000 ------- 2 2.0 3.0 37 37
r 0.8 4 3 cbr 1000 ------- 2 2.0 3.0 31 31
r 0.802 1 4 cbr 1000 ------- 2 2.0 3.0 33 33
+ 0.802 4 3 cbr 1000 ------- 2 2.0 3.0 33 33
- 0.802 4 3 cbr 1000 ------- 2 2.0 3.0 33 33
r 0.802 2 1 cbr 1000 ------- 2 2.0 3.0 36 36
+ 0.802 1 4 cbr 1000 ------- 2 2.0 3.0 36 36
- 0.802 1 4 cbr 1000 ------- 2 2.0 3.0 36 36
+ 0.804 2 1 cbr 1000 ------- 2 2.0 3.0 38 38
- 0.804 2 1 cbr 1000 ------- 2 2.0 3.0 38 38
r 0.808 4 3 cbr 1000 ------- 2 2.0 3.0 32 32
r 0.81 1 4 cbr 1000 ------- 2 2.0 3.0 34 34
+ 0.81 4 3 cbr 1000 ------- 2 2.0 3.0 34 34
- 0.81 4 3 cbr 1000 ------- 2 2.0 3.0 34 34
r 0.81 2 1 cbr 1000 ------- 2 2.0 3.0 37 37
+ 0.81 1 4 cbr 1000 ------- 2 2.0 3.0 37 37
- 0.81 1 4 cbr 1000 ------- 2 2.0 3.0 37 37
+ 0.812 2 1 cbr 1000 ------- 2 2.0 3.0 39 39
- 0.812 2 1 cbr 1000 ------- 2 2.0 3.0 39 39
r 0.816 4 3 cbr 1000 ------- 2 2.0 3.0 33 33
r 0.818 1 4 cbr 1000 ------- 2 2.0 3.0 35 35
+ 0.818 4 3 cbr 1000 ------- 2 2.0 3.0 35 35
- 0.818 4 3 cbr 1000 ------- 2 2.0 3.0 35 35
r 0.818 2 1 cbr 1000 ------- 2 2.0 3.0 38 38
+ 0.818 1 4 cbr 1000 ------- 2 2.0 3.0 38 38
- 0.818 1 4 cbr 1000 ------- 2 2.0 3.0 38 38
+ 0.82 2 1 cbr 1000 ------- 2 2.0 3.0 40 40
- 0.82 2 1 cbr 1000 ------- 2 2.0 3.0 40 40
r 0.824 4 3 cbr 1000 ------- 2 2.0 3.0 34 34
r 0.826 1 4 cbr 1000 ------- 2 2.0 3.0 36 36
+ 0.826 4 3 cbr 1000 ------- 2 2.0 3.0 36 36
- 0.826 4 3 cbr 1000 ------- 2 2.0 3.0 36 36
r 0.826 2 1 cbr 1000 ------- 2 2.0 3.0 39 39
+ 0.826 1 4 cbr 1000 ------- 2 2.0 3.0 39 39
- 0.826 1 4 cbr 1000 ------- 2 2.0 3.0 39 39
+ 0.828 2 1 cbr 1000 ------- 2 2.0 3.0 41 41
- 0.828 2 1 cbr 1000 ------- 2 2.0 3.0 41 41
r 0.832 4 3 cbr 1000 ------- 2 2.0 3.0 35 35
r 0.834 1 4 cbr 1000 ------- 2 2.0 3.0 37 37
+ 0.834 4 3 cbr 1000 ------- 2 2.0 3.0 37 37
- 0.834 4 3 cbr 1000 ------- 2 2.0 3.0 37 37
r 0.834 2 1 cbr 1000 ------- 2 2.0 3.0 40 40
+ 0.834 1 4 cbr 1000 ------- 2 2.0 3.0 40 40
- 0.834 1 4 cbr 1000 ------- 2 2.0 3.0 40 40
+ 0.836 2 1 cbr 1000 ------- 2 2.0 3.0 42 42
- 0.836 2 1 cbr 1000 ------- 2 2.0 3.0 42 42
r 0.84 4 3 cbr 1000 ------- 2 2.0 3.0 36 36
r 0.842 1 4 cbr 1000 ------- 2 2.0 3.0 38 38
+ 0.842 4 3 cbr 1000 ------- 2 2.0 3.0 38 38
- 0.842 4 3 cbr 1000 ------- 2 2.0 3.0 38 38
r 0.842 2 1 cbr 1000 ------- 2 2.0 3.0 41 41
+ 0.842 1 4 cbr 1000 ------- 2 2.0 3.0 41 41
- 0.842 1 4 cbr 1000 ------- 2 2.0 3.0 41 41
+ 0.844 2 1 cbr 1000 ------- 2 2.0 3.0 43 43
- 0.844 2 1 cbr 1000 ------- 2 2.0 3.0 43 43
r 0.848 4 3 cbr 1000 ------- 2 2.0 3.0 37 37
r 0.85 1 4 cbr 1000 ------- 2 2.0 3.0 39 39
+ 0.85 4 3 cbr 1000 ------- 2 2.0 3.0 39 39
- 0.85 4 3 cbr 1000 ------- 2 2.0 3.0 39 39
r 0.85 2 1 cbr 1000 ------- 2 2.0 3.0 42 42
+ 0.85 1 4 cbr 1000 ------- 2 2.0 3.0 42 42
- 0.85 1 4 cbr 1000 ------- 2 2.0 3.0 42 42
+ 0.852 2 1 cbr 1000 ------- 2 2.0 3.0 44 44
- 0.852 2 1 cbr 1000 ------- 2 2.0 3.0 44 44
r 0.856 4 3 cbr 1000 ------- 2 2.0 3.0 38 38
r 0.858 1 4 cbr 1000 ------- 2 2.0 3.0 40 40
+ 0.858 4 3 cbr 1000 ------- 2 2.0 3.0 40 40
- 0.858 4 3 cbr 1000 ------- 2 2.0 3.0 40 40
r 0.858 2 1 cbr 1000 ------- 2 2.0 3.0 43 43
+ 0.858 1 4 cbr 1000 ------- 2 2.0 3.0 43 43
- 0.858 1 4 cbr 1000 ------- 2 2.0 3.0 43 43
+ 0.86 2 1 cbr 1000 ------- 2 2.0 3.0 45 45
- 0.86 2 1 cbr 1000 ------- 2 2.0 3.0 45 45
r 0.864 4 3 cbr 1000 ------- 2 2.0 3.0 39 39
r 0.866 1 4 cbr 1000 ------- 2 2.0 3.0 41 41
+ 0.866 4 3 cbr 1000 ------- 2 2.0 3.0 41 41
- 0.866 4 3 cbr 1000 ------- 2 2.0 3.0 41 41
r 0.866 2 1 cbr 1000 ------- 2 2.0 3.0 44 44
+ 0.866 1 4 cbr 1000 ------- 2 2.0 3.0 44 44
- 0.866 1 4 cbr 1000 ------- 2 2.0 3.0 44 44
+ 0.868 2 1 cbr 1000 ------- 2 2.0 3.0 46 46
- 0.868 2 1 cbr 1000 ------- 2 2.0 3.0 46 46
r 0.872 4 3 cbr 1000 ------- 2 2.0 3.0 40 40
r 0.874 1 4 cbr 1000 ------- 2 2.0 3.0 42 42
+ 0.874 4 3 cbr 1000 ------- 2 2.0 3.0 42 42
- 0.874 4 3 cbr 1000 ------- 2 2.0 3.0 42 42
r 0.874 2 1 cbr 1000 ------- 2 2.0 3.0 45 45
+ 0.874 1 4 cbr 1000 ------- 2 2.0 3.0 45 45
- 0.874 1 4 cbr 1000 ------- 2 2.0 3.0 45 45
+ 0.876 2 1 cbr 1000 ------- 2 2.0 3.0 47 47
- 0.876 2 1 cbr 1000 ------- 2 2.0 3.0 47 47
r 0.88 4 3 cbr 1000 ------- 2 2.0 3.0 41 41
r 0.882 1 4 cbr 1000 ------- 2 2.0 3.0 43 43
+ 0.882 4 3 cbr 1000 ------- 2 2.0 3.0 43 43
- 0.882 4 3 cbr 1000 ------- 2 2.0 3.0 43 43
r 0.882 2 1 cbr 1000 ------- 2 2.0 3.0 46 46
+ 0.882 1 4 cbr 1000 ------- 2 2.0 3.0 46 46
- 0.882 1 4 cbr 1000 ------- 2 2.0 3.0 46 46
+ 0.884 2 1 cbr 1000 ------- 2 2.0 3.0 48 48
- 0.884 2 1 cbr 1000 ------- 2 2.0 3.0 48 48
r 0.888 4 3 cbr 1000 ------- 2 2.0 3.0 42 42
r 0.89 1 4 cbr 1000 ------- 2 2.0 3.0 44 44
+ 0.89 4 3 cbr 1000 ------- 2 2.0 3.0 44 44
- 0.89 4 3 cbr 1000 ------- 2 2.0 3.0 44 44
r 0.89 2 1 cbr 1000 ------- 2 2.0 3.0 47 47
+ 0.89 1 4 cbr 1000 ------- 2 2.0 3.0 47 47
- 0.89 1 4 cbr 1000 ------- 2 2.0 3.0 47 47
+ 0.892 2 1 cbr 1000 ------- 2 2.0 3.0 49 49
- 0.892 2 1 cbr 1000 ------- 2 2.0 3.0 49 49
r 0.896 4 3 cbr 1000 ------- 2 2.0 3.0 43 43
r 0.898 1 4 cbr 1000 ------- 2 2.0 3.0 45 45
+ 0.898 4 3 cbr 1000 ------- 2 2.0 3.0 45 45
- 0.898 4 3 cbr 1000 ------- 2 2.0 3.0 45 45
r 0.898 2 1 cbr 1000 ------- 2 2.0 3.0 48 48
+ 0.898 1 4 cbr 1000 ------- 2 2.0 3.0 48 48
- 0.898 1 4 cbr 1000 ------- 2 2.0 3.0 48 48
+ 0.9 2 1 cbr 1000 ------- 2 2.0 3.0 50 50
- 0.9 2 1 cbr 1000 ------- 2 2.0 3.0 50 50
r 0.904 4 3 cbr 1000 ------- 2 2.0 3.0 44 44
r 0.906 1 4 cbr 1000 ------- 2 2.0 3.0 46 46
+ 0.906 4 3 cbr 1000 ------- 2 2.0 3.0 46 46
- 0.906 4 3 cbr 1000 ------- 2 2.0 3.0 46 46
r 0.906 2 1 cbr 1000 ------- 2 2.0 3.0 49 49
+ 0.906 1 4 cbr 1000 ------- 2 2.0 3.0 49 49
- 0.906 1 4 cbr 1000 ------- 2 2.0 3.0 49 49
+ 0.908 2 1 cbr 1000 ------- 2 2.0 3.0 51 51
- 0.908 2 1 cbr 1000 ------- 2 2.0 3.0 51 51
r 0.912 4 3 cbr 1000 ------- 2 2.0 3.0 45 45
r 0.914 1 4 cbr 1000 ------- 2 2.0 3.0 47 47
+ 0.914 4 3 cbr 1000 ------- 2 2.0 3.0 47 47
- 0.914 4 3 cbr 1000 ------- 2 2.0 3.0 47 47
r 0.914 2 1 cbr 1000 ------- 2 2.0 3.0 50 50
+ 0.914 1 4 cbr 1000 ------- 2 2.0 3.0 50 50
- 0.914 1 4 cbr 1000 ------- 2 2.0 3.0 50 50
+ 0.916 2 1 cbr 1000 ------- 2 2.0 3.0 52 52
- 0.916 2 1 cbr 1000 ------- 2 2.0 3.0 52 52
r 0.92 4 3 cbr 1000 ------- 2 2.0 3.0 46 46
r 0.922 1 4 cbr 1000 ------- 2 2.0 3.0 48 48
+ 0.922 4 3 cbr 1000 ------- 2 2.0 3.0 48 48
- 0.922 4 3 cbr 1000 ------- 2 2.0 3.0 48 48
r 0.922 2 1 cbr 1000 ------- 2 2.0 3.0 51 51
+ 0.922 1 4 cbr 1000 ------- 2 2.0 3.0 51 51
- 0.922 1 4 cbr 1000 ------- 2 2.0 3.0 51 51
+ 0.924 2 1 cbr 1000 ------- 2 2.0 3.0 53 53
- 0.924 2 1 cbr 1000 ------- 2 2.0 3.0 53 53
r 0.928 4 3 cbr 1000 ------- 2 2.0 3.0 47 47
r 0.93 1 4 cbr 1000 ------- 2 2.0 3.0 49 49
+ 0.93 4 3 cbr 1000 ------- 2 2.0 3.0 49 49
- 0.93 4 3 cbr 1000 ------- 2 2.0 3.0 49 49
r 0.93 2 1 cbr 1000 ------- 2 2.0 3.0 52 52
+ 0.93 1 4 cbr 1000 ------- 2 2.0 3.0 52 52
- 0.93 1 4 cbr 1000 ------- 2 2.0 3.0 52 52
+ 0.932 2 1 cbr 1000 ------- 2 2.0 3.0 54 54
- 0.932 2 1 cbr 1000 ------- 2 2.0 3.0 54 54
r 0.936 4 3 cbr 1000 ------- 2 2.0 3.0 48 48
r 0.938 1 4 cbr 1000 ------- 2 2.0 3.0 50 50
+ 0.938 4 3 cbr 1000 ------- 2 2.0 3.0 50 50
- 0.938 4 3 cbr 1000 ------- 2 2.0 3.0 50 50
r 0.938 2 1 cbr 1000 ------- 2 2.0 3.0 53 53
+ 0.938 1 4 cbr 1000 ------- 2 2.0 3.0 53 53
- 0.938 1 4 cbr 1000 ------- 2 2.0 3.0 53 53
+ 0.94 2 1 cbr 1000 ------- 2 2.0 3.0 55 55
- 0.94 2 1 cbr 1000 ------- 2 2.0 3.0 55 55
r 0.944 4 3 cbr 1000 ------- 2 2.0 3.0 49 49
r 0.946 1 4 cbr 1000 ------- 2 2.0 3.0 51 51
+ 0.946 4 3 cbr 1000 ------- 2 2.0 3.0 51 51
- 0.946 4 3 cbr 1000 ------- 2 2.0 3.0 51 51
r 0.946 2 1 cbr 1000 ------- 2 2.0 3.0 54 54
+ 0.946 1 4 cbr 1000 ------- 2 2.0 3.0 54 54
- 0.946 1 4 cbr 1000 ------- 2 2.0 3.0 54 54
+ 0.948 2 1 cbr 1000 ------- 2 2.0 3.0 56 56
- 0.948 2 1 cbr 1000 ------- 2 2.0 3.0 56 56
r 0.952 4 3 cbr 1000 ------- 2 2.0 3.0 50 50
r 0.954 1 4 cbr 1000 ------- 2 2.0 3.0 52 52
+ 0.954 4 3 cbr 1000 ------- 2 2.0 3.0 52 52
- 0.954 4 3 cbr 1000 ------- 2 2.0 3.0 52 52
r 0.954 2 1 cbr 1000 ------- 2 2.0 3.0 55 55
+ 0.954 1 4 cbr 1000 ------- 2 2.0 3.0 55 55
- 0.954 1 4 cbr 1000 ------- 2 2.0 3.0 55 55
+ 0.956 2 1 cbr 1000 ------- 2 2.0 3.0 57 57
- 0.956 2 1 cbr 1000 ------- 2 2.0 3.0 57 57
r 0.96 4 3 cbr 1000 ------- 2 2.0 3.0 51 51
r 0.962 1 4 cbr 1000 ------- 2 2.0 3.0 53 53
+ 0.962 4 3 cbr 1000 ------- 2 2.0 3.0 53 53
- 0.962 4 3 cbr 1000 ------- 2 2.0 3.0 53 53
r 0.962 2 1 cbr 1000 ------- 2 2.0 3.0 56 56
+ 0.962 1 4 cbr 1000 ------- 2 2.0 3.0 56 56
- 0.962 1 4 cbr 1000 ------- 2 2.0 3.0 56 56
+ 0.964 2 1 cbr 1000 ------- 2 2.0 3.0 58 58
- 0.964 2 1 cbr 1000 ------- 2 2.0 3.0 58 58
r 0.968 4 3 cbr 1000 ------- 2 2.0 3.0 52 52
r 0.97 1 4 cbr 1000 ------- 2 2.0 3.0 54 54
+ 0.97 4 3 cbr 1000 ------- 2 2.0 3.0 54 54
- 0.97 4 3 cbr 1000 ------- 2 2.0 3.0 54 54
r 0.97 2 1 cbr 1000 ------- 2 2.0 3.0 57 57
+ 0.97 1 4 cbr 1000 ------- 2 2.0 3.0 57 57
- 0.97 1 4 cbr 1000 ------- 2 2.0 3.0 57 57
+ 0.972 2 1 cbr 1000 ------- 2 2.0 3.0 59 59
- 0.972 2 1 cbr 1000 ------- 2 2.0 3.0 59 59
r 0.976 4 3 cbr 1000 ------- 2 2.0 3.0 53 53
r 0.978 1 4 cbr 1000 ------- 2 2.0 3.0 55 55
+ 0.978 4 3 cbr 1000 ------- 2 2.0 3.0 55 55
- 0.978 4 3 cbr 1000 ------- 2 2.0 3.0 55 55
r 0.978 2 1 cbr 1000 ------- 2 2.0 3.0 58 58
+ 0.978 1 4 cbr 1000 ------- 2 2.0 3.0 58 58
- 0.978 1 4 cbr 1000 ------- 2 2.0 3.0 58 58
+ 0.98 2 1 cbr 1000 ------- 2 2.0 3.0 60 60
- 0.98 2 1 cbr 1000 ------- 2 2.0 3.0 60 60
r 0.984 4 3 cbr 1000 ------- 2 2.0 3.0 54 54
r 0.986 1 4 cbr 1000 ------- 2 2.0 3.0 56 56
+ 0.986 4 3 cbr 1000 ------- 2 2.0 3.0 56 56
- 0.986 4 3 cbr 1000 ------- 2 2.0 3.0 56 56
r 0.986 2 1 cbr 1000 ------- 2 2.0 3.0 59 59
+ 0.986 1 4 cbr 1000 ------- 2 2.0 3.0 59 59
- 0.986 1 4 cbr 1000 ------- 2 2.0 3.0 59 59
+ 0.988 2 1 cbr 1000 ------- 2 2.0 3.0 61 61
- 0.988 2 1 cbr 1000 ------- 2 2.0 3.0 61 61
r 0.992 4 3 cbr 1000 ------- 2 2.0 3.0 55 55
r 0.994 1 4 cbr 1000 ------- 2 2.0 3.0 57 57
+ 0.994 4 3 cbr 1000 ------- 2 2.0 3.0 57 57
- 0.994 4 3 cbr 1000 ------- 2 2.0 3.0 57 57
r 0.994 2 1 cbr 1000 ------- 2 2.0 3.0 60 60
+ 0.994 1 4 cbr 1000 ------- 2 2.0 3.0 60 60
- 0.994 1 4 cbr 1000 ------- 2 2.0 3.0 60 60
+ 0.996 2 1 cbr 1000 ------- 2 2.0 3.0 62 62
- 0.996 2 1 cbr 1000 ------- 2 2.0 3.0 62 62
+ 1 0 1 tcp 40 ------- 1 0.0 5.0 0 63
- 1 0 1 tcp 40 ------- 1 0.0 5.0 0 63
r 1 4 3 cbr 1000 ------- 2 2.0 3.0 56 56
r 1.002 1 4 cbr 1000 ------- 2 2.0 3.0 58 58
+ 1.002 4 3 cbr 1000 ------- 2 2.0 3.0 58 58
- 1.002 4 3 cbr 1000 ------- 2 2.0 3.0 58 58
r 1.002 2 1 cbr 1000 ------- 2 2.0 3.0 61 61
+ 1.002 1 4 cbr 1000 ------- 2 2.0 3.0 61 61
- 1.002 1 4 cbr 1000 ------- 2 2.0 3.0 61 61
+ 1.004 2 1 cbr 1000 ------- 2 2.0 3.0 63 64
- 1.004 2 1 cbr 1000 ------- 2 2.0 3.0 63 64
r 1.008 4 3 cbr 1000 ------- 2 2.0 3.0 57 57
r 1.01 1 4 cbr 1000 ------- 2 2.0 3.0 59 59
+ 1.01 4 3 cbr 1000 ------- 2 2.0 3.0 59 59
- 1.01 4 3 cbr 1000 ------- 2 2.0 3.0 59 59
r 1.01 2 1 cbr 1000 ------- 2 2.0 3.0 62 62
+ 1.01 1 4 cbr 1000 ------- 2 2.0 3.0 62 62
- 1.01 1 4 cbr 1000 ------- 2 2.0 3.0 62 62
r 1.01016 0 1 tcp 40 ------- 1 0.0 5.0 0 63
+ 1.01016 1 4 tcp 40 ------- 1 0.0 5.0 0 63
+ 1.012 2 1 cbr 1000 ------- 2 2.0 3.0 64 65
- 1.012 2 1 cbr 1000 ------- 2 2.0 3.0 64 65
- 1.014 1 4 tcp 40 ------- 1 0.0 5.0 0 63
r 1.016 4 3 cbr 1000 ------- 2 2.0 3.0 58 58
r 1.018 1 4 cbr 1000 ------- 2 2.0 3.0 60 60
+ 1.018 4 3 cbr 1000 ------- 2 2.0 3.0 60 60
- 1.018 4 3 cbr 1000 ------- 2 2.0 3.0 60 60
r 1.018 2 1 cbr 1000 ------- 2 2.0 3.0 63 64
+ 1.018 1 4 cbr 1000 ------- 2 2.0 3.0 63 64
- 1.018 1 4 cbr 1000 ------- 2 2.0 3.0 63 64
+ 1.02 2 1 cbr 1000 ------- 2 2.0 3.0 65 66
- 1.02 2 1 cbr 1000 ------- 2 2.0 3.0 65 66
r 1.024 4 3 cbr 1000 ------- 2 2.0 3.0 59 59
r 1.026 1 4 cbr 1000 ------- 2 2.0 3.0 61 61
+ 1.026 4 3 cbr 1000 ------- 2 2.0 3.0 61 61
- 1.026 4 3 cbr 1000 ------- 2 2.0 3.0 61 61
r 1.026 2 1 cbr 1000 ------- 2 2.0 3.0 64 65
+ 1.026 1 4 cbr 1000 ------- 2 2.0 3.0 64 65
- 1.026 1 4 cbr 1000 ------- 2 2.0 3.0 64 65
+ 1.028 2 1 cbr 1000 ------- 2 2.0 3.0 66 67
- 1.028 2 1 cbr 1000 ------- 2 2.0 3.0 66 67
r 1.032 4 3 cbr 1000 ------- 2 2.0 3.0 60 60
r 1.034 1 4 cbr 1000 ------- 2 2.0 3.0 62 62
+ 1.034 4 3 cbr 1000 ------- 2 2.0 3.0 62 62
- 1.034 4 3 cbr 1000 ------- 2 2.0 3.0 62 62
r 1.034 2 1 cbr 1000 ------- 2 2.0 3.0 65 66
+ 1.034 1 4 cbr 1000 ------- 2 2.0 3.0 65 66
- 1.034 1 4 cbr 1000 ------- 2 2.0 3.0 65 66
r 1.03416 1 4 tcp 40 ------- 1 0.0 5.0 0 63
+ 1.03416 4 5 tcp 40 ------- 1 0.0 5.0 0 63
- 1.03416 4 5 tcp 40 ------- 1 0.0 5.0 0 63
+ 1.036 2 1 cbr 1000 ------- 2 2.0 3.0 67 68
- 1.036 2 1 cbr 1000 ------- 2 2.0 3.0 67 68
r 1.04 4 3 cbr 1000 ------- 2 2.0 3.0 61 61
r 1.042 1 4 cbr 1000 ------- 2 2.0 3.0 63 64
+ 1.042 4 3 cbr 1000 ------- 2 2.0 3.0 63 64
- 1.042 4 3 cbr 1000 ------- 2 2.0 3.0 63 64
r 1.042 2 1 cbr 1000 ------- 2 2.0 3.0 66 67
+ 1.042 1 4 cbr 1000 ------- 2 2.0 3.0 66 67
- 1.042 1 4 cbr 1000 ------- 2 2.0 3.0 66 67
+ 1.044 2 1 cbr 1000 ------- 2 2.0 3.0 68 69
- 1.044 2 1 cbr 1000 ------- 2 2.0 3.0 68 69
r 1.04432 4 5 tcp 40 ------- 1 0.0 5.0 0 63
+ 1.04432 5 4 ack 40 ------- 1 5.0 0.0 0 70
- 1.04432 5 4 ack 40 ------- 1 5.0 0.0 0 70
r 1.048 4 3 cbr 1000 ------- 2 2.0 3.0 62 62
r 1.05 1 4 cbr 1000 ------- 2 2.0 3.0 64 65
+ 1.05 4 3 cbr 1000 ------- 2 2.0 3.0 64 65
- 1.05 4 3 cbr 1000 ------- 2 2.0 3.0 64 65
r 1.05 2 1 cbr 1000 ------- 2 2.0 3.0 67 68
+ 1.05 1 4 cbr 1000 ------- 2 2.0 3.0 67 68
- 1.05 1 4 cbr 1000 ------- 2 2.0 3.0 67 68
+ 1.052 2 1 cbr 1000 ------- 2 2.0 3.0 69 71
- 1.052 2 1 cbr 1000 ------- 2 2.0 3.0 69 71
r 1.05448 5 4 ack 40 ------- 1 5.0 0.0 0 70
+ 1.05448 4 1 ack 40 ------- 1 5.0 0.0 0 70
- 1.05448 4 1 ack 40 ------- 1 5.0 0.0 0 70
r 1.056 4 3 cbr 1000 ------- 2 2.0 3.0 63 64
r 1.058 1 4 cbr 1000 ------- 2 2.0 3.0 65 66
+ 1.058 4 3 cbr 1000 ------- 2 2.0 3.0 65 66
- 1.058 4 3 cbr 1000 ------- 2 2.0 3.0 65 66
r 1.058 2 1 cbr 1000 ------- 2 2.0 3.0 68 69
+ 1.058 1 4 cbr 1000 ------- 2 2.0 3.0 68 69
- 1.058 1 4 cbr 1000 ------- 2 2.0 3.0 68 69
+ 1.06 2 1 cbr 1000 ------- 2 2.0 3.0 70 72
- 1.06 2 1 cbr 1000 ------- 2 2.0 3.0 70 72
r 1.064 4 3 cbr 1000 ------- 2 2.0 3.0 64 65
r 1.066 1 4 cbr 1000 ------- 2 2.0 3.0 66 67
+ 1.066 4 3 cbr 1000 ------- 2 2.0 3.0 66 67
- 1.066 4 3 cbr 1000 ------- 2 2.0 3.0 66 67
r 1.066 2 1 cbr 1000 ------- 2 2.0 3.0 69 71
+ 1.066 1 4 cbr 1000 ------- 2 2.0 3.0 69 71
- 1.066 1 4 cbr 1000 ------- 2 2.0 3.0 69 71
+ 1.068 2 1 cbr 1000 ------- 2 2.0 3.0 71 73
- 1.068 2 1 cbr 1000 ------- 2 2.0 3.0 71 73
r 1.072 4 3 cbr 1000 ------- 2 2.0 3.0 65 66
r 1.074 1 4 cbr 1000 ------- 2 2.0 3.0 67 68
+ 1.074 4 3 cbr 1000 ------- 2 2.0 3.0 67 68
- 1.074 4 3 cbr 1000 ------- 2 2.0 3.0 67 68
r 1.074 2 1 cbr 1000 ------- 2 2.0 3.0 70 72
+ 1.074 1 4 cbr 1000 ------- 2 2.0 3.0 70 72
- 1.074 1 4 cbr 1000 ------- 2 2.0 3.0 70 72
r 1.07464 4 1 ack 40 ------- 1 5.0 0.0 0 70
+ 1.07464 1 0 ack 40 ------- 1 5.0 0.0 0 70
- 1.07464 1 0 ack 40 ------- 1 5.0 0.0 0 70
+ 1.076 2 1 cbr 1000 ------- 2 2.0 3.0 72 74
- 1.076 2 1 cbr 1000 ------- 2 2.0 3.0 72 74
r 1.08 4 3 cbr 1000 ------- 2 2.0 3.0 66 67
r 1.082 1 4 cbr 1000 ------- 2 2.0 3.0 68 69
+ 1.082 4 3 cbr 1000 ------- 2 2.0 3.0 68 69
- 1.082 4 3 cbr 1000 ------- 2 2.0 3.0 68 69
r 1.082 2 1 cbr 1000 ------- 2 2.0 3.0 71 73
+ 1.082 1 4 cbr 1000 ------- 2 2.0 3.0 71 73
- 1.082 1 4 cbr 1000 ------- 2 2.0 3.0 71 73
+ 1.084 2 1 cbr 1000 ------- 2 2.0 3.0 73 75
- 1.084 2 1 cbr 1000 ------- 2 2.0 3.0 73 75
r 1.0848 1 0 ack 40 ------- 1 5.0 0.0 0 70
+ 1.0848 0 1 tcp 1040 ------- 1 0.0 5.0 1 76
- 1.0848 0 1 tcp 1040 ------- 1 0.0 5.0 1 76
+ 1.0848 0 1 tcp 1040 ------- 1 0.0 5.0 2 77
r 1.088 4 3 cbr 1000 ------- 2 2.0 3.0 67 68
- 1.08896 0 1 tcp 1040 ------- 1 0.0 5.0 2 77
r 1.09 1 4 cbr 1000 ------- 2 2.0 3.0 69 71
+ 1.09 4 3 cbr 1000 ------- 2 2.0 3.0 69 71
- 1.09 4 3 cbr 1000 ------- 2 2.0 3.0 69 71
r 1.09 2 1 cbr 1000 ------- 2 2.0 3.0 72 74
+ 1.09 1 4 cbr 1000 ------- 2 2.0 3.0 72 74
- 1.09 1 4 cbr 1000 ------- 2 2.0 3.0 72 74
+ 1.092 2 1 cbr 1000 ------- 2 2.0 3.0 74 78
- 1.092 2 1 cbr 1000 ------- 2 2.0 3.0 74 78
r 1.096 4 3 cbr 1000 ------- 2 2.0 3.0 68 69
r 1.098 1 4 cbr 1000 ------- 2 2.0 3.0 70 72
+ 1.098 4 3 cbr 1000 ------- 2 2.0 3.0 70 72
- 1.098 4 3 cbr 1000 ------- 2 2.0 3.0 70 72
r 1.098 2 1 cbr 1000 ------- 2 2.0 3.0 73 75