V -t * -v 1.0a5 -a 0
A -t * -n 1 -p 0 -o 0x7fffffff -c 30 -a 1
A -t * -h 1 -m 1073741823 -s 0
c -t * -i 1 -n Blue
c -t * -i 2 -n Red
n -t * -a 4 -s 4 -S UP -v circle -c black -i black
n -t * -a 0 -s 0 -S UP -v circle -c black -i black
n -t * -a 5 -s 5 -S UP -v circle -c red -i red
n -t * -a 1 -s 1 -S UP -v circle -c black -i black
n -t * -a 2 -s 2 -S UP -v circle -c black -i black
n -t * -a 3 -s 3 -S UP -v circle -c black -i black
l -t * -s 0 -d 1 -S UP -r 2000000 -D 0.01 -c black -o right-down
l -t * -s 2 -d 1 -S UP -r 2000000 -D 0.01 -c black -o right-up
l -t * -s 1 -d 4 -S UP -r 2000000 -D 0.02 -c black -o right
l -t * -s 3 -d 4 -S UP -r 2000000 -D 0.01 -c black -o left-down
l -t * -s 5 -d 4 -S UP -r 2000000 -D 0.01 -c black -o left-up
q -t * -s 4 -d 1 -a 0.5
q -t * -s 1 -d 4 -a 0.5
+ -t 0.5 -s 2 -d 1 -p cbr -e 1000 -c 2 -i 0 -a 2 -x {2.0 3.0 0 ------- null}
- -t 0.5 -s 2 -d 1 -p cbr -e 1000 -c 2 -i 0 -a 2 -x {2.0 3.0 0 ------- null}
h -t 0.5 -s 2 -d 1 -p cbr -e 1000 -c 2 -i 0 -a 2 -x {2.0 3.0 -1 ------- null}
+ -t 0.508 -s 2 -d 1 -p cbr -e 1000 -c 2 -i 1 -a 2 -x {2.0 3.0 1 ------- null}
- -t 0.508 -s 2 -d 1 -p cbr -e 1000 -c 2 -i 1 -a 2 -x {2.0 3.0 1 ------- null}
h -t 0.508 -s 2 -d 1 -p cbr -e 1000 -c 2 -i 1 -a 2 -x {2.0 3.0 -1 ------- null}
r -t 0.514 -s 2 -d 1 -p cbr -e 1000 -c 2 -i 0 -a 2 -x {2.0 3.0 0 ------- null}
+ -t 0.514 -s 1 -d 4 -p cbr -e 1000 -c 2 -i 0 -a 2 -x {2.0 3.0 0 ------- null}
- -t 0.514 -s 1 -d 4 -p cbr -e 1000 -c 2 -i 0 -a 2 -x {2.0 3.0 0 ------- null}
h -t 0.514 -s 1 -d 4 -p cbr -e 1000 -c 2 -i 0 -a 2 -x {2.0 3.0 -1 ------- null}
+ -t 0.516 -s 2 -d 1 -p cbr -e 1000 -c 2 -i 2 -a 2 -x {2.0 3.0 2 ------- null}
- -t 0.516 -s 2 -d 1 -p cbr -e 1000 -c 2 -i 2 -a 2 -x {2.0 3.0 2 ------- null}
h -t 0.516 -s 2 -d 1 -p cbr -e 1000 -c 2 -i 2 -a 2 -x {2.0 3.0 -1 ------- null}
r -t 0.522 -s 2 -d 1 -p cbr -e 1000 -c 2 -i 1 -a 2 -x {2.0 3.0 1 ------- null}
+ -t 0.522 -s 1 -d 4 -p cbr -e 1000 -c 2 -i 1 -a 2 -x {2.0 3.0 1 ------- null}
- -t 0.522 -s 1 -d 4 -p cbr -e 1000 -c 2 -i 1 -a 2 -x {2.0 3.0 1 ------- null}
h -t 0.522 -s 1 -d 4 -p cbr -e 1000 -c 2 -i 1 -a 2 -x {2.0 3.0 -1 ------- null}
+ -t 0.524 -s 2 -d 1 -p cbr -e 1000 -c 2 -i 3 -a 2 -x {2.0 3.0 3 ------- null}
- -t 0.524 -s 2 -d 1 -p cbr -e 1000 -c 2 -i 3 -a 2 -x {2.0 3.0 3 ------- null}
h -t 0.524 -s 2 -d 1 -p cbr -e 1000 -c 2 -i 3 -a 2 -x {2.0 3.0 -1 ------- null}
r -t 0.53 -s 2 -d 1 -p cbr -e 1000 -c 2 -i 2 -a 2 -x {2.0 3.0 2 ------- null}
+ -t 0.53 -s 1 -d 4 -p cbr -e 1000 -c 2 -i 2 -a 2 -x {2.0 3.0 2 ------- null}
- -t 0.53 -s 1 -d 4 -p cbr -e 1000 -c 2 -i 2 -a 2 -x {2.0 3.0 2 ------- null}
h -t 0.53 -s 1 -d 4 -p cbr -e 1000 -c 2 -i 2 -a 2 -x {2.0 3.0 -1 ------- null}
+ -t 0.532 -s 2 -d 1 -p cbr -e 1000 -c 2 -i 4 -a 2 -x {2.0 3.0 4 ------- null}
- -t 0.532 -s 2 -d 1 -p cbr -e 1000 -c 2 -i 4 -a 2 -x {2.0 3.0 4 ------- null}
h -t 0.532 -s 2 -d 1 -p cbr -e 1000 -c 2 -i 4 -a 2 -x {2.0 3.0 -1 ------- null}
r -t 0.538 -s 1 -d 4 -p cbr -e 1000 -c 2 -i 0 -a 2 -x {2.0 3.0 0 ------- null}
+ -t 0.538 -s 4 -d 3 -p cbr -e 1000 -c 2 -i 0 -a 2 -x {2.0 3.0 0 ------- null}
- -t 0.538 -s 4 -d 3 -p cbr -e 1000 -c 2 -i 0 -a 2 -x {2.0 3.0 0 ------- null}
h -t 0.538 -s 4 -d 3 -p cbr -e 1000 -c 2 -i 0 -a 2 -x {2.0 3.0 -1 ------- null}
r -t 0.538 -s 2 -d 1 -p cbr -e 1000 -c 2 -i 3 -a 2 -x {2.0 3.0 3 ------- null}
+ -t 0.538 -s 1 -d 4 -p cbr -e 1000 -c 2 -i 3 -a 2 -x {2.0 3.0 3 ------- null}
- -t 0.538 -s 1 -d 4 -p cbr -e 1000 -c 2 -i 3 -a 2 -x {2.0 3.0 3 ------- null}
h -t 0.538 -s 1 -d 4 -p cbr -e 1000 -c 2 -i 3 -a 2 -x {2.0 3.0 -1 ------- null}
+ -t 0.54 -s 2 -d 1 -p cbr -e 1000 -c 2 -i 5 -a 2 -x {2.0 3.0 5 ------- null}
- -t 0.54 -s 2 -d 1 -p cbr -e 1000 -c 2 -i 5 -a 2 -x {2.0 3.0 5 ------- null}
h -t 0.54 -s 2 -d 1 -p cbr -e 1000 -c 2 -i 5 -a 2 -x {2.0 3.0 -1 ------- null}
r -t 0.546 -s 1 -d 4 -p cbr -e 1000 -c 2 -i 1 -a 2 -x {2.0 3.0 1 ------- null}
+ -t 0.546 -s 4 -d 3 -p cbr -e 1000 -c 2 -i 1 -a 2 -x {2.0 3.0 1 ------- null}
- -t 0.546 -s 4 -d 3 -p cbr -e 1000 -c 2 -i 1 -a 2 -x {2.0 3.0 1 ------- null}
h -t 0.546 -s 4 -d 3 -p cbr -e 1000 -c 2 -i 1 -a 2 -x {2.0 3.0 -1 ------- null}
r -t 0.546 -s 2 -d 1 -p cbr -e 1000 -c 2 -i 4 -a 2 -x {2.0 3.0 4 ------- null}
+ -t 0.546 -s 1 -d 4 -p cbr -e 1000 -c 2 -i 4 -a 2 -x {2.0 3.0 4 ------- null}
- -t 0.546 -s 1 -d 4 -p cbr -e 1000 -c 2 -i 4 -a 2 -x {2.0 3.0 4 ------- null}
h -t 0.546 -s 1 -d 4 -p cbr -e 1000 -c 2 -i 4 -a 2 -x {2.0 3.0 -1 ------- null}
+ -t 0.548 -s 2 -d 1 -p cbr -e 1000 -c 2 -i 6 -a 2 -x {2.0 3.0 6 ------- null}
- -t 0.548 -s 2 -d 1 -p cbr -e 1000 -c 2 -i 6 -a 2 -x {2.0 3.0 6 ------- null}
h -t 0.548 -s 2 -d 1 -p cbr -e 1000 -c 2 -i 6 -a 2 -x {2.0 3.0 -1 ------- null}
r -t 0.552 -s 4 -d 3 -p cbr -e 1000 -c 2 -i 0 -a 2 -x {2.0 3.0 0 ------- null}
r -t 0.554 -s 1 -d 4 -p cbr -e 1000 -c 2 -i 2 -a 2 -x {2.0 3.0 2 ------- null}
+ -t 0.554 -s 4 -d 3 -p cbr -e 1000 -c 2 -i 2 -a 2 -x {2.0 3.0 2 ------- null}
- -t 0.554 -s 4 -d 3 -p cbr -e 1000 -c 2 -i 2 -a 2 -x {2.0 3.0 2 ------- null}
h -t 0.554 -s 4 -d 3 -p cbr -e 1000 -c 2 -i 2 -a 2 -x {2.0 3.0 -1 ------- null}
r -t 0.554 -s 2 -d 1 -p cbr -e 1000 -c 2 -i 5 -a 2 -x {2.0 3.0 5 ------- null}
+ -t 0.554 -s 1 -d 4 -p cbr -e 1000 -c 2 -i 5 -a 2 -x {2.0 3.0 5 ------- null}
- -t 0.554 -s 1 -d 4 -p cbr -e 1000 -c 2 -i 5 -a 2 -x {2.0 3.0 5 ------- null}
h -t 0.554 -s 1 -d 4 -p cbr -e 1000 -c 2 -i 5 -a 2 -x {2.0 3.0 -1 ------- null}
+ -t 0.556 -s 2 -d 1 -p cbr -e 1000 -c 2 -i 7 -a 2 -x {2.0 3.0 7 ------- null}
- -t 0.556 -s 2 -d 1 -p cbr -e 1000 -c 2 -i 7 -a 2 -x {2.0 3.0 7 ------- null}
h -t 0.556 -s 2 -d 1 -p cbr -e 1000 -c 2 -i 7 -a 2 -x {2.0 3.0 -1 ------- null}
r -t 0.56 -s 4 -d 3 -p cbr -e 1000 -c 2 -i 1 -a 2 -x {2.0 3.0 1 ------- null}
r -t 0.562 -s 1 -d 4 -p cbr -e 1000 -c 2 -i 3 -a 2 -x {2.0 3.0 3 ------- null}
+ -t 0.562 -s 4 -d 3 -p cbr -e 1000 -c 2 -i 3 -a 2 -x {2.0 3.0 3 ------- null}
- -t 0.562 -s 4 -d 3 -p cbr -e 1000 -c 2 -i 3 -a 2 -x {2.0 3.0 3 ------- null}
h -t 0.562 -s 4 -d 3 -p cbr -e 1000 -c 2 -i 3 -a 2 -x {2.0 3.0 -1 ------- null}
r -t 0.562 -s 2 -d 1 -p cbr -e 1000 -c 2 -i 6 -a 2 -x {2.0 3.0 6 ------- null}
+ -t 0.562 -s 1 -d 4 -p cbr -e 1000 -c 2 -i 6 -a 2 -x {2.0 3.0 6 ------- null}
- -t 0.562 -s 1 -d 4 -p cbr -e 1000 -c 2 -i 6 -a 2 -x {2.0 3.0 6 ------- null}
h -t 0.562 -s 1 -d 4 -p cbr -e 1000 -c 2 -i 6 -a 2 -x {2.0 3.0 -1 ------- null}
+ -t 0.564 -s 2 -d 1 -p cbr -e 1000 -c 2 -i 8 -a 2 -x {2.0 3.0 8 ------- null}
- -t 0.564 -s 2 -d 1 -p cbr -e 1000 -c 2 -i 8 -a 2 -x {2.0 3.0 8 ------- null}
h -t 0.564 -s 2 -d 1 -p cbr -e 1000 -c 2 -i 8 -a 2 -x {2.0 3.0 -1 ------- null}
r -t 0.568 -s 4 -d 3 -p cbr -e 1000 -c 2 -i 2 -a 2 -x {2.0 3.0 2 ------- null}
r -t 0.57 -s 1 -d 4 -p cbr -e 1000 -c 2 -i 4 -a 2 -x {2.0 3.0 4 ------- null}
+ -t 0.57 -s 4 -d 3 -p cbr -e 1000 -c 2 -i 4 -a 2 -x {2.0 3.0 4 ------- null}
- -t 0.57 -s 4 -d 3 -p cbr -e 1000 -c 2 -i 4 -a 2 -x {2.0 3.0 4 ------- null}
h -t 0.57 -s 4 -d 3 -p cbr -e 1000 -c 2 -i 4 -a 2 -x {2.0 3.0 -1 ------- null}
r -t 0.57 -s 2 -d 1 -p cbr -e 1000 -c 2 -i 7 -a 2 -x {2.0 3.0 7 ------- null}
+ -t 0.57 -s 1 -d 4 -p cbr -e 1000 -c 2 -i 7 -a 2 -x {2.0 3.0 7 ------- null}
- -t 0.57 -s 1 -d 4 -p cbr -e 1000 -c 2 -i 7 -a 2 -x {2.0 3.0 7 ------- null}
h -t 0.57 -s 1 -d 4 -p cbr -e 1000 -c 2 -i 7 -a 2 -x {2.0 3.0 -1 ------- null}
+ -t 0.572 -s 2 -d 1 -p cbr -e 1000 -c 2 -i 9 -a 2 -x {2.0 3.0 9 ------- null}
- -t 0.572 -s 2 -d 1 -p cbr -e 1000 -c 2 -i 9 -a 2 -x {2.0 3.0 9 ------- null}
h -t 0.572 -s 2 -d 1 -p cbr -e 1000 -c 2 -i 9 -a 2 -x {2.0 3.0 -1 ------- null}
r -t 0.576 -s 4 -d 3 -p cbr -e 1000 -c 2 -i 3 -a 2 -x {2.0 3.0 3 ------- null}
r -t 0.578 -s 1 -d 4 -p cbr -e 1000 -c 2 -i 5 -a 2 -x {2.0 3.0 5 ------- null}
+ -t 0.578 -s 4 -d 3 -p cbr -e 1000 -c 2 -i 5 -a 2 -x {2.0 3.0 5 ------- null}
- -t 0.578 -s 4 -d 3 -p cbr -e 1000 -c 2 -i 5 -a 2 -x {2.0 3.0 5 ------- null}
h -t 0.578 -s 4 -d 3 -p cbr -e 1000 -c 2 -i 5 -a 2 -x {2.0 3.0 -1 ------- null}
r -t 0.578 -s 2 -d 1 -p cbr -e 1000 -c 2 -i 8 -a 2 -x {2.0 3.0 8 ------- null}
+ -t 0.578 -s 1 -d 4 -p cbr -e 1000 -c 2 -i 8 -a 2 -x {2.0 3.0 8 ------- null}
- -t 0.578 -s 1 -d 4 -p cbr -e 1000 -c 2 -i 8 -a 2 -x {2.0 3.0 8 ------- null}
h -t 0.578 -s 1 -d 4 -p cbr -e 1000 -c 2 -i 8 -a 2 -x {2.0 3.0 -1 ------- null}
+ -t 0.58 -s 2 -d 1 -p cbr -e 1000 -c 2 -i 10 -a 2 -x {2.0 3.0 10 ------- null}
- -t 0.58 -s 2 -d 1 -p cbr -e 1000 -c 2 -i 10 -a 2 -x {2.0 3.0 10 ------- null}
h -t 0.58 -s 2 -d 1 -p cbr -e 1000 -c 2 -i 10 -a 2 -x {2.0 3.0 -1 ------- null}
r -t 0.584 -s 4 -d 3 -p cbr -e 1000 -c 2 -i 4 -a 2 -x {2.0 3.0 4 ------- null}
r -t 0.586 -s 1 -d 4 -p cbr -e 1000 -c 2 -i 6 -a 2 -x {2.0 3.0 6 ------- null}
+ -t 0.586 -s 4 -d 3 -p cbr -e 1000 -c 2 -i 6 -a 2 -x {2.0 3.0 6 ------- null}
- -t 0.586 -s 4 -d 3 -p cbr -e 1000 -c 2 -i 6 -a 2 -x {2.0 3.0 6 ------- null}
h -t 0.586 -s 4 -d 3 -p cbr -e 1000 -c 2 -i 6 -a 2 -x {2.0 3.0 -1 ------- null}
r -t 0.586 -s 2 -d 1 -p cbr -e 1000 -c 2 -i 9 -a 2 -x {2.0 3.0 9 ------- null}
+ -t 0.586 -s 1 -d 4 -p cbr -e 1000 -c 2 -i 9 -a 2 -x {2.0 3.0 9 ------- null}
- -t 0.586 -s 1 -d 4 -p cbr -e 1000 -c 2 -i 9 -a 2 -x {2.0 3.0 9 ------- null}
h -t 0.586 -s 1 -d 4 -p cbr -e 1000 -c 2 -i 9 -a 2 -x {2.0 3.0 -1 ------- null}
+ -t 0.588 -s 2 -d 1 -p cbr -e 1000 -c 2 -i 11 -a 2 -x {2.0 3.0 11 ------- null}
- -t 0.588 -s 2 -d 1 -p cbr -e 1000 -c 2 -i 11 -a 2 -x {2.0 3.0 11 ------- null}
h -t 0.588 -s 2 -d 1 -p cbr -e 1000 -c 2 -i 11 -a 2 -x {2.0 3.0 -1 ------- null}
r -t 0.592 -s 4 -d 3 -p cbr -e 1000 -c 2 -i 5 -a 2 -x {2.0 3.0 5 ------- null}
r -t 0.594 -s 1 -d 4 -p cbr -e 1000 -c 2 -i 7 -a 2 -x {2.0 3.0 7 ------- null}
+ -t 0.594 -s 4 -d 3 -p cbr -e 1000 -c 2 -i 7 -a 2 -x {2.0 3.0 7 ------- null}
- -t 0.594 -s 4 -d 3 -p cbr -e 1000 -c 2 -i 7 -a 2 -x {2.0 3.0 7 ------- null}
h -t 0.594 -s 4 -d 3 -p cbr -e 1000 -c 2 -i 7 -a 2 -x {2.0 3.0 -1 ------- null}
r -t 0.594 -s 2 -d 1 -p cbr -e 1000 -c 2 -i 10 -a 2 -x {2.0 3.0 10 ------- null}
+ -t 0.594 -s 1 -d 4 -p cbr -e 1000 -c 2 -i 10 -a 2 -x {2.0 3.0 10 ------- null}
- -t 0.594 -s 1 -d 4 -p cbr -e 1000 -c 2 -i 10 -a 2 -x {2.0 3.0 10 ------- null}
h -t 0.594 -s 1 -d 4 -p cbr -e 1000 -c 2 -i 10 -a 2 -x {2.0 3.0 -1 ------- null}
+ -t 0.596 -s 2 -d 1 -p cbr -e 1000 -c 2 -i 12 -a 2 -x {2.0 3.0 12 ------- null}
- -t 0.596 -s 2 -d 1 -p cbr -e 1000 -c 2 -i 12 -a 2 -x {2.0 3.0 12 ------- null}
h -t 0.596 -s 2 -d 1 -p cbr -e 1000 -c 2 -i 12 -a 2 -x {2.0 3.0 -1 ------- null}
r -t 0.6 -s 4 -d 3 -p cbr -e 1000 -c 2 -i 6 -a 2 -x {2.0 3.0 6 ------- null}
r -t 0.602 -s 1 -d 4 -p cbr -e 1000 -c 2 -i 8 -a 2 -x {2.0 3.0 8 ------- null}
+ -t 0.602 -s 4 -d 3 -p cbr -e 1000 -c 2 -i 8 -a 2 -x {2.0 3.0 8 ------- null}
- -t 0.602 -s 4 -d 3 -p cbr -e 1000 -c 2 -i 8 -a 2 -x {2.0 3.0 8 ------- null}
h -t 0.602 -s 4 -d 3 -p cbr -e 1000 -c 2 -i 8 -a 2 -x {2.0 3.0 -1 ------- null}
r -t 0.602 -s 2 -d 1 -p cbr -e 1000 -c 2 -i 11 -a 2 -x {2.0 3.0 11 ------- null}
+ -t 0.602 -s 1 -d 4 -p cbr -e 1000 -c 2 -i 11 -a 2 -x {2.0 3.0 11 ------- null}
- -t 0.602 -s 1 -d 4 -p cbr -e 1000 -c 2 -i 11 -a 2 -x {2.0 3.0 11 ------- null}
h -t 0.602 -s 1 -d 4 -p cbr -e 1000 -c 2 -i 11 -a 2 -x {2.0 3.0 -1 ------- null}
+ -t 0.604 -s 2 -d 1 -p cbr -e 1000 -c 2 -i 13 -a 2 -x {2.0 3.0 13 ------- null}
- -t 0.604 -s 2 -d 1 -p cbr -e 1000 -c 2 -i 13 -a 2 -x {2.0 3.0 13 ------- null}
h -t 0.604 -s 2 -d 1 -p cbr -e 1000 -c 2 -i 13 -a 2 -x {2.0 3.0 -1 ------- null}
r -t 0.608 -s 4 -d 3 -p cbr -e 1000 -c 2 -i 7 -a 2 -x {2.0 3.0 7 ------- null}
r -t 0.61 -s 1 -d 4 -p cbr -e 1000 -c 2 -i 9 -a 2 -x {2.0 3.0 9 ------- null}
+ -t 0.61 -s 4 -d 3 -p cbr -e 1000 -c 2 -i 9 -a 2 -x {2.0 3.0 9 ------- null}
- -t 0.61 -s 4 -d 3 -p cbr -e 1000 -c 2 -i 9 -a 2 -x {2.0 3.0 9 ------- null}
h -t 0.61 -s 4 -d 3 -p cbr -e 1000 -c 2 -i 9 -a 2 -x {2.0 3.0 -1 ------- null}
r -t 0.61 -s 2 -d 1 -p cbr -e 1000 -c 2 -i 12 -a 2 -x {2.0 3.0 12 ------- null}
+ -t 0.61 -s 1 -d 4 -p cbr -e 1000 -c 2 -i 12 -a 2 -x {2.0 3.0 12 ------- null}
- -t 0.61 -s 1 -d 4 -p cbr -e 1000 -c 2 -i 12 -a 2 -x {2.0 3.0 12 ------- null}
h -t 0.61 -s 1 -d 4 -p cbr -e 1000 -c 2 -i 12 -a 2 -x {2.0 3.0 -1 ------- null}
+ -t 0.612 -s 2 -d 1 -p cbr -e 1000 -c 2 -i 14 -a 2 -x {2.0 3.0 14 ------- null}
- -t 0.612 -s 2 -d 1 -p cbr -e 1000 -c 2 -i 14 -a 2 -x {2.0 3.0 14 ------- null}
h -t 0.612 -s 2 -d 1 -p cbr -e 1000 -c 2 -i 14 -a 2 -x {2.0 3.0 -1 ------- null}
r -t 0.616 -s 4 -d 3 -p cbr -e 1000 -c 2 -i 8 -a 2 -x {2.0 3.0 8 ------- null}
r -t 0.618 -s 1 -d 4 -p cbr -e 1000 -c 2 -i 10 -a 2 -x {2.0 3.0 10 ------- null}
+ -t 0.618 -s 4 -d 3 -p cbr -e 1000 -c 2 -i 10 -a 2 -x {2.0 3.0 10 ------- null}
- -t 0.618 -s 4 -d 3 -p cbr -e 1000 -c 2 -i 10 -a 2 -x {2.0 3.0 10 ------- null}
h -t 0.618 -s 4 -d 3 -p cbr -e 1000 -c 2 -i 10 -a 2 -x {2.0 3.0 -1 ------- null}
r -t 0.618 -s 2 -d 1 -p cbr -e 1000 -c 2 -i 13 -a 2 -x {2.0 3.0 13 ------- null}
+ -t 0.618 -s 1 -d 4 -p cbr -e 1000 -c 2 -i 13 -a 2 -x {2.0 3.0 13 ------- null}
- -t 0.618 -s 1 -d 4 -p cbr -e 1000 -c 2 -i 13 -a 2 -x {2.0 3.0 13 ------- null}
h -t 0.618 -s 1 -d 4 -p cbr -e 1000 -c 2 -i 13 -a 2 -x {2.0 3.0 -1 ------- null}
+ -t 0.62 -s 2 -d 1 -p cbr -e 1000 -c 2 -i 15 -a 2 -x {2.0 3.0 15 ------- null}
- -t 0.62 -s 2 -d 1 -p cbr -e 1000 -c 2 -i 15 -a 2 -x {2.0 3.0 15 ------- null}
h -t 0.62 -s 2 -d 1 -p cbr -e 1000 -c 2 -i 15 -a 2 -x {2.0 3.0 -1 ------- null}
r -t 0.624 -s 4 -d 3 -p cbr -e 1000 -c 2 -i 9 -a 2 -x {2.0 3.0 9 ------- null}
r -t 0.626 -s 1 -d 4 -p cbr -e 1000 -c 2 -i 11 -a 2 -x {2.0 3.0 11 ------- null}
+ -t 0.626 -s 4 -d 3 -p cbr -e 1000 -c 2 -i 11 -a 2 -x {2.0 3.0 11 ------- null}
- -t 0.626 -s 4 -d 3 -p cbr -e 1000 -c 2 -i 11 -a 2 -x {2.0 3.0 11 ------- null}
h -t 0.626 -s 4 -d 3 -p cbr -e 1000 -c 2 -i 11 -a 2 -x {2.0 3.0 -1 ------- null}
r -t 0.626 -s 2 -d 1 -p cbr -e 1000 -c 2 -i 14 -a 2 -x {2.0 3.0 14 ------- null}
+ -t 0.626 -s 1 -d 4 -p cbr -e 1000 -c 2 -i 14 -a 2 -x {2.0 3.0 14 ------- null}
- -t 0.626 -s 1 -d 4 -p cbr -e 1000 -c 2 -i 14 -a 2 -x {2.0 3.0 14 ------- null}
h -t 0.626 -s 1 -d 4 -p cbr -e 1000 -c 2 -i 14 -a 2 -x {2.0 3.0 -1 ------- null}
+ -t 0.628 -s 2 -d 1 -p cbr -e 1000 -c 2 -i 16 -a 2 -x {2.0 3.0 16 ------- null}
- -t 0.628 -s 2 -d 1 -p cbr -e 1000 -c 2 -i 16 -a 2 -x {2.0 3.0 16 ------- null}
h -t 0.628 -s 2 -d 1 -p cbr -e 1000 -c 2 -i 16 -a 2 -x {2.0 3.0 -1 ------- null}
r -t 0.632 -s 4 -d 3 -p cbr -e 1000 -c 2 -i 10 -a 2 -x {2.0 3.0 10 ------- null}
r -t 0.634 -s 1 -d 4 -p cbr -e 1000 -c 2 -i 12 -a 2 -x {2.0 3.0 12 ------- null}
+ -t 0.634 -s 4 -d 3 -p cbr -e 1000 -c 2 -i 12 -a 2 -x {2.0 3.0 12 ------- null}
- -t 0.634 -s 4 -d 3 -p cbr -e 1000 -c 2 -i 12 -a 2 -x {2.0 3.0 12 ------- null}
h -t 0.634 -s 4 -d 3 -p cbr -e 1000 -c 2 -i 12 -a 2 -x {2.0 3.0 -1 ------- null}
r -t 0.634 -s 2 -d 1 -p cbr -e 1000 -c 2 -i 15 -a 2 -x {2.0 3.0 15 ------- null}
+ -t 0.634 -s 1 -d 4 -p cbr -e 1000 -c 2 -i 15 -a 2 -x {2.0 3.0 15 ------- null}
- -t 0.634 -s 1 -d 4 -p cbr -e 1000 -c 2 -i 15 -a 2 -x {2.0 3.0 15 ------- null}
h -t 0.634 -s 1 -d 4 -p cbr -e 1000 -c 2 -i 15 -a 2 -x {2.0 3.0 -1 ------- null}
+ -t 0.636 -s 2 -d 1 -p cbr -e 1000 -c 2 -i 17 -a 2 -x {2.0 3.0 17 ------- null}
- -t 0.636 -s 2 -d 1 -p cbr -e 1000 -c 2 -i 17 -a 2 -x {2.0 3.0 17 ------- null}
h -t 0.636 -s 2 -d 1 -p cbr -e 1000 -c 2 -i 17 -a 2 -x {2.0 3.0 -1 ------- null}
r -t 0.64 -s 4 -d 3 -p cbr -e 1000 -c 2 -i 11 -a 2 -x {2.0 3.0 11 ------- null}
r -t 0.642 -s 1 -d 4 -p cbr -e 1000 -c 2 -i 13 -a 2 -x {2.0 3.0 13 ------- null}
+ -t 0.642 -s 4 -d 3 -p cbr -e 1000 -c 2 -i 13 -a 2 -x {2.0 3.0 13 ------- null}
- -t 0.642 -s 4 -d 3 -p cbr -e 1000 -c 2 -i 13 -a 2 -x {2.0 3.0 13 ------- null}
h -t 0.642 -s 4 -d 3 -p cbr -e 1000 -c 2 -i 13 -a 2 -x {2.0 3.0 -1 ------- null}
r -t 0.642 -s 2 -d 1 -p cbr -e 1000 -c 2 -i 16 -a 2 -x {2.0 3.0 16 ------- null}
+ -t 0.642 -s 1 -d 4 -p cbr -e 1000 -c 2 -i 16 -a 2 -x {2.0 3.0 16 ------- null}
- -t 0.642 -s 1 -d 4 -p cbr -e 1000 -c 2 -i 16 -a 2 -x {2.0 3.0 16 ------- null}
h -t 0.642 -s 1 -d 4 -p cbr -e 1000 -c 2 -i 16 -a 2 -x {2.0 3.0 -1 ------- null}
+ -t 0.644 -s 2 -d 1 -p cbr -e 1000 -c 2 -i 18 -a 2 -x {2.0 3.0 18 ------- null}
- -t 0.644 -s 2 -d 1 -p cbr -e 1000 -c 2 -i 18 -a 2 -x {2.0 3.0 18 ------- null}
h -t 0.644 -s 2 -d 1 -p cbr -e 1000 -c 2 -i 18 -a 2 -x {2.0 3.0 -1 ------- null}
r -t 0.648 -s 4 -d 3 -p cbr -e 1000 -c 2 -i 12 -a 2 -x {2.0 3.0 12 ------- null}
r -t 0.65 -s 1 -d 4 -p cbr -e 1000 -c 2 -i 14 -a 2 -x {2.0 3.0 14 ------- null}
+ -t 0.65 -s 4 -d 3 -p cbr -e 1000 -c 2 -i 14 -a 2 -x {2.0 3.0 14 ------- null}
- -t 0.65 -s 4 -d 3 -p cbr -e 1000 -c 2 -i 14 -a 2 -x {2.0 3.0 14 ------- null}
h -t 0.65 -s 4 -d 3 -p cbr -e 1000 -c 2 -i 14 -a 2 -x {2.0 3.0 -1 ------- null}
r -t 0.65 -s 2 -d 1 -p cbr -e 1000 -c 2 -i 17 -a 2 -x {2.0 3.0 17 ------- null}
+ -t 0.65 -s 1 -d 4 -p cbr -e 1000 -c 2 -i 17 -a 2 -x {2.0 3.0 17 ------- null}
- -t 0.65 -s 1 -d 4 -p cbr -e 1000 -c 2 -i 17 -a 2 -x {2.0 3.0 17 ------- null}
h -t 0.65 -s 1 -d 4 -p cbr -e 1000 -c 2 -i 17 -a 2 -x {2.0 3.0 -1 ------- null}
+ -t 0.652 -s 2 -d 1 -p cbr -e 1000 -c 2 -i 19 -a 2 -x {2.0 3.0 19 ------- null}
- -t 0.652 -s 2 -d 1 -p cbr -e 1000 -c 2 -i 19 -a 2 -x {2.0 3.0 19 ------- null}
h -t 0.652 -s 2 -d 1 -p cbr -e 1000 -c 2 -i 19 -a 2 -x {2.0 3.0 -1 ------- null}
r -t 0.656 -s 4 -d 3 -p cbr -e 1000 -c 2 -i 13 -a 2 -x {2.0 3.0 13 ------- null}
r -t 0.658 -s 1 -d 4 -p cbr -e 1000 -c 2 -i 15 -a 2 -x {2.0 3.0 15 ------- null}
+ -t 0.658 -s 4 -d 3 -p cbr -e 1000 -c 2 -i 15 -a 2 -x {2.0 3.0 15 ------- null}
- -t 0.658 -s 4 -d 3 -p cbr -e 1000 -c 2 -i 15 -a 2 -x {2.0 3.0 15 ------- null}
h -t 0.658 -s 4 -d 3 -p cbr -e 1000 -c 2 -i 15 -a 2 -x {2.0 3.0 -1 ------- null}
r -t 0.658 -s 2 -d 1 -p cbr -e 1000 -c 2 -i 18 -a 2 -x {2.0 3.0 18 ------- null}
+ -t 0.658 -s 1 -d 4 -p cbr -e 1000 -c 2 -i 18 -a 2 -x {2.0 3.0 18 ------- null}
- -t 0.658 -s 1 -d 4 -p cbr -e 1000 -c 2 -i 18 -a 2 -x {2.0 3.0 18 ------- null}
h -t 0.658 -s 1 -d 4 -p cbr -e 1000 -c 2 -i 18 -a 2 -x {2.0 3.0 -1 ------- null}
+ -t 0.66 -s 2 -d 1 -p cbr -e 1000 -c 2 -i 20 -a 2 -x {2.0 3.0 20 ------- null}
- -t 0.66 -s 2 -d 1 -p cbr -e 1000 -c 2 -i 20 -a 2 -x {2.0 3.0 20 ------- null}
h -t 0.66 -s 2 -d 1 -p cbr -e 1000 -c 2 -i 20 -a 2 -x {2.0 3.0 -1 ------- null}
r -t 0.664 -s 4 -d 3 -p cbr -e 1000 -c 2 -i 14 -a 2 -x {2.0 3.0 14 ------- null}
r -t 0.666 -s 1 -d 4 -p cbr -e 1000 -c 2 -i 16 -a 2 -x {2.0 3.0 16 ------- null}
+ -t 0.666 -s 4 -d 3 -p cbr -e 1000 -c 2 -i 16 -a 2 -x {2.0 3.0 16 ------- null}
- -t 0.666 -s 4 -d 3 -p cbr -e 1000 -c 2 -i 16 -a 2 -x {2.0 3.0 16 ------- null}
h -t 0.666 -s 4 -d 3 -p cbr -e 1000 -c 2 -i 16 -a 2 -x {2.0 3.0 -1 ------- null}
r -t 0.666 -s 2 -d 1 -p cbr -e 1000 -c 2 -i 19 -a 2 -x {2.0 3.0 19 ------- null}
+ -t 0.666 -s 1 -d 4 -p cbr -e 1000 -c 2 -i 19 -a 2 -x {2.0 3.0 19 ------- null}
- -t 0.666 -s 1 -d 4 -p cbr -e 1000 -c 2 -i 19 -a 2 -x {2.0 3.0 19 ------- null}
h -t 0.666 -s 1 -d 4 -p cbr -e 1000 -c 2 -i 19 -a 2 -x {2.0 3.0 -1 ------- null}
+ -t 0.668 -s 2 -d 1 -p cbr -e 1000 -c 2 -i 21 -a 2 -x {2.0 3.0 21 ------- null}
- -t 0.668 -s 2 -d 1 -p cbr -e 1000 -c 2 -i 21 -a 2 -x {2.0 3.0 21 ------- null}
h -t 0.668 -s 2 -d 1 -p cbr -e 1000 -c 2 -i 21 -a 2 -x {2.0 3.0 -1 ------- null}
r -t 0.672 -s 4 -d 3 -p cbr -e 1000 -c 2 -i 15 -a 2 -x {2.0 3.0 15 ------- null}
r -t 0.674 -s 1 -d 4 -p cbr -e 1000 -c 2 -i 17 -a 2 -x {2.0 3.0 17 ------- null}
+ -t 0.674 -s 4 -d 3 -p cbr -e 1000 -c 2 -i 17 -a 2 -x {2.0 3.0 17 ------- null}
- -t 0.674 -s 4 -d 3 -p cbr -e 1000 -c 2 -i 17 -a 2 -x {2.0 3.0 17 ------- null}
h -t 0.674 -s 4 -d 3 -p cbr -e 1000 -c 2 -i 17 -a 2 -x {2.0 3.0 -1 ------- null}
r -t 0.674 -s 2 -d 1 -p cbr -e 1000 -c 2 -i 20 -a 2 -x {2.0 3.0 20 ------- null}
+ -t 0.674 -s 1 -d 4 -p cbr -e 1000 -c 2 -i 20 -a 2 -x {2.0 3.0 20 ------- null}
- -t 0.674 -s 1 -d 4 -p cbr -e 1000 -c 2 -i 20 -a 2 -x {2.0 3.0 20 ------- null}
h -t 0.674 -s 1 -d 4 -p cbr -e 1000 -c 2 -i 20 -a 2 -x {2.0 3.0 -1 ------- null}
+ -t 0.676 -s 2 -d 1 -p cbr -e 1000 -c 2 -i 22 -a 2 -x {2.0 3.0 22 ------- null}
- -t 0.676 -s 2 -d 1 -p cbr -e 1000 -c 2 -i 22 -a 2 -x {2.0 3.0 22 ------- null}
h -t 0.676 -s 2 -d 1 -p cbr -e 1000 -c 2 -i 22 -a 2 -x {2.0 3.0 -1 ------- null}
r -t 0.68 -s 4 -d 3 -p cbr -e 1000 -c 2 -i 16 -a 2 -x {2.0 3.0 16 ------- null}
r -t 0.682 -s 1 -d 4 -p cbr -e 1000 -c 2 -i 18 -a 2 -x {2.0 3.0 18 ------- null}
+ -t 0.682 -s 4 -d 3 -p cbr -e 1000 -c 2 -i 18 -a 2 -x {2.0 3.0 18 ------- null}
- -t 0.682 -s 4 -d 3 -p cbr -e 1000 -c 2 -i 18 -a 2 -x {2.0 3.0 18 ------- null}
h -t 0.682 -s 4 -d 3 -p cbr -e 1000 -c 2 -i 18 -a 2 -x {2.0 3.0 -1 ------- null}
r -t 0.682 -s 2 -d 1 -p cbr -e 1000 -c 2 -i 21 -a 2 -x {2.0 3.0 21 ------- null}
+ -t 0.682 -s 1 -d 4 -p cbr -e 1000 -c 2 -i 21 -a 2 -x {2.0 3.0 21 ------- null}
- -t 0.682 -s 1 -d 4 -p cbr -e 1000 -c 2 -i 21 -a 2 -x {2.0 3.0 21 ------- null}
h -t 0.682 -s 1 -d 4 -p cbr -e 1000 -c 2 -i 21 -a 2 -x {2.0 3.0 -1 ------- null}
+ -t 0.684 -s 2 -d 1 -p cbr -e 1000 -c 2 -i 23 -a 2 -x {2.0 3.0 23 ------- null}
- -t 0.684 -s 2 -d 1 -p cbr -e 1000 -c 2 -i 23 -a 2 -x {2.0 3.0 23 ------- null}
h -t 0.684 -s 2 -d 1 -p cbr -e 1000 -c 2 -i 23 -a 2 -x {2.0 3.0 -1 ------- null}
r -t 0.688 -s 4 -d 3 -p cbr -e 1000 -c 2 -i 17 -a 2 -x {2.0 3.0 17 ------- null}
r -t 0.69 -s 1 -d 4 -p cbr -e 1000 -c 2 -i 19 -a 2 -x {2.0 3.0 19 ------- null}
+ -t 0.69 -s 4 -d 3 -p cbr -e 1000 -c 2 -i 19 -a 2 -x {2.0 3.0 19 ------- null}
- -t 0.69 -s 4 -d 3 -p cbr -e 1000 -c 2 -i 19 -a 2 -x {2.0 3.0 19 ------- null}
h -t 0.69 -s 4 -d 3 -p cbr -e 1000 -c 2 -i 19 -a 2 -x {2.0 3.0 -1 ------- null}
r -t 0.69 -s 2 -d 1 -p cbr -e 1000 -c 2 -i 22 -a 2 -x {2.0 3.0 22 ------- null}
+ -t 0.69 -s 1 -d 4 -p cbr -e 1000 -c 2 -i 22 -a 2 -x {2.0 3.0 22 ------- null}
- -t 0.69 -s 1 -d 4 -p cbr -e 1000 -c 2 -i 22 -a 2 -x {2.0 3.0 22 ------- null}
h -t 0.69 -s 1 -d 4 -p cbr -e 1000 -c 2 -i 22 -a 2 -x {2.0 3.0 -1 ------- null}
+ -t 0.692 -s 2 -d 1 -p cbr -e 1000 -c 2 -i 24 -a 2 -x {2.0 3.0 24 ------- null}
- -t 0.692 -s 2 -d 1 -p cbr -e 1000 -c 2 -i 24 -a 2 -x {2.0 3.0 24 ------- null}
h -t 0.692 -s 2 -d 1 -p cbr -e 1000 -c 2 -i 24 -a 2 -x {2.0 3.0 -1 ------- null}
r -t 0.696 -s 4 -d 3 -p cbr -e 1000 -c 2 -i 18 -a 2 -x {2.0 3.0 18 ------- null}
r -t 0.698 -s 1 -d 4 -p cbr -e 1000 -c 2 -i 20 -a 2 -x {2.0 3.0 20 ------- null}
+ -t 0.698 -s 4 -d 3 -p cbr -e 1000 -c 2 -i 20 -a 2 -x {2.0 3.0 20 ------- null}
- -t 0.698 -s 4 -d 3 -p cbr -e 1000 -c 2 -i 20 -a 2 -x {2.0 3.0 20 ------- null}
h -t 0.698 -s 4 -d 3 -p cbr -e 1000 -c 2 -i 20 -a 2 -x {2.0 3.0 -1 ------- null}
r -t 0.698 -s 2 -d 1 -p cbr -e 1000 -c 2 -i 23 -a 2 -x {2.0 3.0 23 ------- null}
+ -t 0.698 -s 1 -d 4 -p cbr -e 1000 -c 2 -i 23 -a 2 -x {2.0 3.0 23 ------- null}
- -t 0.698 -s 1 -d 4 -p cbr -e 1000 -c 2 -i 23 -a 2 -x {2.0 3.0 23 ------- null}
h -t 0.698 -s 1 -d 4 -p cbr -e 1000 -c 2 -i 23 -a 2 -x {2.0 3.0 -1 ------- null}
+ -t 0.7 -s 2 -d 1 -p cbr -e 1000 -c 2 -i 25 -a 2 -x {2.0 3.0 25 ------- null}
- -t 0.7 -s 2 -d 1 -p cbr -e 1000 -c 2 -i 25 -a 2 -x {2.0 3.0 25 ------- null}
h -t 0.7 -s 2 -d 1 -p cbr -e 1000 -c 2 -i 25 -a 2 -x {2.0 3.0 -1 ------- null}
r -t 0.704 -s 4 -d 3 -p cbr -e 1000 -c 2 -i 19 -a 2 -x {2.0 3.0 19 ------- null}
r -t 0.706 -s 1 -d 4 -p cbr -e 1000 -c 2 -i 21 -a 2 -x {2.0 3.0 21 ------- null}
+ -t 0.706 -s 4 -d 3 -p cbr -e 1000 -c 2 -i 21 -a 2 -x {2.0 3.0 21 ------- null}
- -t 0.706 -s 4 -d 3 -p cbr -e 1000 -c 2 -i 21 -a 2 -x {2.0 3.0 21 ------- null}
h -t 0.706 -s 4 -d 3 -p cbr -e 1000 -c 2 -i 21 -a 2 -x {2.0 3.0 -1 ------- null}
r -t 0.706 -s 2 -d 1 -p cbr -e 1000 -c 2 -i 24 -a 2 -x {2.0 3.0 24 ------- null}
+ -t 0.706 -s 1 -d 4 -p cbr -e 1000 -c 2 -i 24 -a 2 -x {2.0 3.0 24 ------- null}
- -t 0.706 -s 1 -d 4 -p cbr -e 1000 -c 2 -i 24 -a 2 -x {2.0 3.0 24 ------- null}
h -t 0.706 -s 1 -d 4 -p cbr -e 1000 -c 2 -i 24 -a 2 -x {2.0 3.0 -1 ------- null}
+ -t 0.708 -s 2 -d 1 -p cbr -e 1000 -c 2 -i 26 -a 2 -x {2.0 3.0 26 ------- null}
- -t 0.708 -s 2 -d 1 -p cbr -e 1000 -c 2 -i 26 -a 2 -x {2.0 3.0 26 ------- null}
h -t 0.708 -s 2 -d 1 -p cbr -e 1000 -c 2 -i 26 -a 2 -x {2.0 3.0 -1 ------- null}
r -t 0.712 -s 4 -d 3 -p cbr -e 1000 -c 2 -i 20 -a 2 -x {2.0 3.0 20 ------- null}
r -t 0.714 -s 1 -d 4 -p cbr -e 1000 -c 2 -i 22 -a 2 -x {2.0 3.0 22 ------- null}
+ -t 0.714 -s 4 -d 3 -p cbr -e 1000 -c 2 -i 22 -a 2 -x {2.0 3.0 22 ------- null}
- -t 0.714 -s 4 -d 3 -p cbr -e 1000 -c 2 -i 22 -a 2 -x {2.0 3.0 22 ------- null}
h -t 0.714 -s 4 -d 3 -p cbr -e 1000 -c 2 -i 22 -a 2 -x {2.0 3.0 -1 ------- null}
r -t 0.714 -s 2 -d 1 -p cbr -e 1000 -c 2 -i 25 -a 2 -x {2.0 3.0 25 ------- null}
+ -t 0.714 -s 1 -d 4 -p cbr -e 1000 -c 2 -i 25 -a 2 -x {2.0 3.0 25 ------- null}
- -t 0.714 -s 1 -d 4 -p cbr -e 1000 -c 2 -i 25 -a 2 -x {2.0 3.0 25 ------- null}
h -t 0.714 -s 1 -d 4 -p cbr -e 1000 -c 2 -i 25 -a 2 -x {2.0 3.0 -1 ------- null}
+ -t 0.716 -s 2 -d 1 -p cbr -e 1000 -c 2 -i 27 -a 2 -x {2.0 3.0 27 ------- null}
- -t 0.716 -s 2 -d 1 -p cbr -e 1000 -c 2 -i 27 -a 2 -x {2.0 3.0 27 ------- null}
h -t 0.716 -s 2 -d 1 -p cbr -e 1000 -c 2 -i 27 -a 2 -x {2.0 3.0 -1 ------- null}
r -t 0.72 -s 4 -d 3 -p cbr -e 1000 -c 2 -i 21 -a 2 -x {2.0 3.0 21 ------- null}
r -t 0.722 -s 1 -d 4 -p cbr -e 1000 -c 2 -i 23 -a 2 -x {2.0 3.0 23 ------- null}
+ -t 0.722 -s 4 -d 3 -p cbr -e 1000 -c 2 -i 23 -a 2 -x {2.0 3.0 23 ------- null}
- -t 0.722 -s 4 -d 3 -p cbr -e 1000 -c 2 -i 23 -a 2 -x {2.0 3.0 23 ------- null}
h -t 0.722 -s 4 -d 3 -p cbr -e 1000 -c 2 -i 23 -a 2 -x {2.0 3.0 -1 ------- null}
r -t 0.722 -s 2 -d 1 -p cbr -e 1000 -c 2 -i 26 -a 2 -x {2.0 3.0 26 ------- null}
+ -t 0.722 -s 1 -d 4 -p cbr -e 1000 -c 2 -i 26 -a 2 -x {2.0 3.0 26 ------- null}
- -t 0.722 -s 1 -d 4 -p cbr -e 1000 -c 2 -i 26 -a 2 -x {2.0 3.0 26 ------- null}
h -t 0.722 -s 1 -d 4 -p cbr -e 1000 -c 2 -i 26 -a 2 -x {2.0 3.0 -1 ------- null}
+ -t 0.724 -s 2 -d 1 -p cbr -e 1000 -c 2 -i 28 -a 2 -x {2.0 3.0 28 ------- null}
- -t 0.724 -s 2 -d 1 -p cbr -e 1000 -c 2 -i 28 -a 2 -x {2.0 3.0 28 ------- null}
h -t 0.724 -s 2 -d 1 -p cbr -e 1000 -c 2 -i 28 -a 2 -x {2.0 3.0 -1 ------- null}
r -t 0.728 -s 4 -d 3 -p cbr -e 1000 -c 2 -i 22 -a 2 -x {2.0 3.0 22 ------- null}
r -t 0.73 -s 1 -d 4 -p cbr -e 1000 -c 2 -i 24 -a 2 -x {2.0 3.0 24 ------- null}
+ -t 0.73 -s 4 -d 3 -p cbr -e 1000 -c 2 -i 24 -a 2 -x {2.0 3.0 24 ------- null}
- -t 0.73 -s 4 -d 3 -p cbr -e 1000 -c 2 -i 24 -a 2 -x {2.0 3.0 24 ------- null}
h -t 0.73 -s 4 -d 3 -p cbr -e 1000 -c 2 -i 24 -a 2 -x {2.0 3.0 -1 ------- null}
r -t 0.73 -s 2 -d 1 -p cbr -e 1000 -c 2 -i 27 -a 2 -x {2.0 3.0 27 ------- null}
+ -t 0.73 -s 1 -d 4 -p cbr -e 1000 -c 2 -i 27 -a 2 -x {2.0 3.0 27 ------- null}
- -t 0.73 -s 1 -d 4 -p cbr -e 1000 -c 2 -i 27 -a 2 -x {2.0 3.0 27 ------- null}
h -t 0.73 -s 1 -d 4 -p cbr -e 1000 -c 2 -i 27 -a 2 -x {2.0 3.0 -1 ------- null}
+ -t 0.732 -s 2 -d 1 -p cbr -e 1000 -c 2 -i 29 -a 2 -x {2.0 3.0 29 ------- null}
- -t 0.732 -s 2 -d 1 -p cbr -e 1000 -c 2 -i 29 -a 2 -x {2.0 3.0 29 ------- null}
h -t 0.732 -s 2 -d 1 -p cbr -e 1000 -c 2 -i 29 -a 2 -x {2.0 3.0 -1 ------- null}
r -t 0.736 -s 4 -d 3 -p cbr -e 1000 -c 2 -i 23 -a 2 -x {2.0 3.0 23 ------- null}
r -t 0.738 -s 1 -d 4 -p cbr -e 1000 -c 2 -i 25 -a 2 -x {2.0 3.0 25 ------- null}
+ -t 0.738 -s 4 -d 3 -p cbr -e 1000 -c 2 -i 25 -a 2 -x {2.0 3.0 25 ------- null}
- -t 0.738 -s 4 -d 3 -p cbr -e 1000 -c 2 -i 25 -a 2 -x {2.0 3.0 25 ------- null}
h -t 0.738 -s 4 -d 3 -p cbr -e 1000 -c 2 -i 25 -a 2 -x {2.0 3.0 -1 ------- null}
r -t 0.738 -s 2 -d 1 -p cbr -e 1000 -c 2 -i 28 -a 2 -x {2.0 3.0 28 ------- null}
+ -t 0.738 -s 1 -d 4 -p cbr -e 1000 -c 2 -i 28 -a 2 -x {2.0 3.0 28 ------- null}
- -t 0.738 -s 1 -d 4 -p cbr -e 1000 -c 2 -i 28 -a 2 -x {2.0 3.0 28 ------- null}
h -t 0.738 -s 1 -d 4 -p cbr -e 1000 -c 2 -i 28 -a 2 -x {2.0 3.0 -1 ------- null}
+ -t 0.74 -s 2 -d 1 -p cbr -e 1000 -c 2 -i 30 -a 2 -x {2.0 3.0 30 ------- null}
- -t 0.74 -s 2 -d 1 -p cbr -e 1000 -c 2 -i 30 -a 2 -x {2.0 3.0 30 ------- null}
h -t 0.74 -s 2 -d 1 -p cbr -e 1000 -c 2 -i 30 -a 2 -x {2.0 3.0 -1 ------- null}
r -t 0.744 -s 4 -d 3 -p cbr -e 1000 -c 2 -i 24 -a 2 -x {2.0 3.0 24 ------- null}
r -t 0.746 -s 1 -d 4 -p cbr -e 1000 -c 2 -i 26 -a 2 -x {2.0 3.0 26 ------- null}
+ -t 0.746 -s 4 -d 3 -p cbr -e 1000 -c 2 -i 26 -a 2 -x {2.0 3.0 26 ------- null}
- -t 0.746 -s 4 -d 3 -p cbr -e 1000 -c 2 -i 26 -a 2 -x {2.0 3.0 26 ------- null}
h -t 0.746 -s 4 -d 3 -p cbr -e 1000 -c 2 -i 26 -a 2 -x {2.0 3.0 -1 ------- null}
r -t 0.746 -s 2 -d 1 -p cbr -e 1000 -c 2 -i 29 -a 2 -x {2.0 3.0 29 ------- null}
+ -t 0.746 -s 1 -d 4 -p cbr -e 1000 -c 2 -i 29 -a 2 -x {2.0 3.0 29 ------- null}
- -t 0.746 -s 1 -d 4 -p cbr -e 1000 -c 2 -i 29 -a 2 -x {2.0 3.0 29 ------- null}
h -t 0.746 -s 1 -d 4 -p cbr -e 1000 -c 2 -i 29 -a 2 -x {2.0 3.0 -1 ------- null}
+ -t 0.748 -s 2 -d 1 -p cbr -e 1000 -c 2 -i 31 -a 2 -x {2.0 3.0 31 ------- null}
- -t 0.748 -s 2 -d 1 -p cbr -e 1000 -c 2 -i 31 -a 2 -x {2.0 3.0 31 ------- null}
h -t 0.748 -s 2 -d 1 -p cbr -e 1000 -c 2 -i 31 -a 2 -x {2.0 3.0 -1 ------- null}
r -t 0.752 -s 4 -d 3 -p cbr -e 1000 -c 2 -i 25 -a 2 -x {2.0 3.0 25 ------- null}
r -t 0.754 -s 1 -d 4 -p cbr -e 1000 -c 2 -i 27 -a 2 -x {2.0 3.0 27 ------- null}
+ -t 0.754 -s 4 -d 3 -p cbr -e 1000 -c 2 -i 27 -a 2 -x {2.0 3.0 27 ------- null}
- -t 0.754 -s 4 -d 3 -p cbr -e 1000 -c 2 -i 27 -a 2 -x {2.0 3.0 27 ------- null}
h -t 0.754 -s 4 -d 3 -p cbr -e 1000 -c 2 -i 27 -a 2 -x {2.0 3.0 -1 ------- null}
r -t 0.754 -s 2 -d 1 -p cbr -e 1000 -c 2 -i 30 -a 2 -x {2.0 3.0 30 ------- null}
+ -t 0.754 -s 1 -d 4 -p cbr -e 1000 -c 2 -i 30 -a 2 -x {2.0 3.0 30 ------- null}
- -t 0.754 -s 1 -d 4 -p cbr -e 1000 -c 2 -i 30 -a 2 -x {2.0 3.0 30 ------- null}
h -t 0.754 -s 1 -d 4 -p cbr -e 1000 -c 2 -i 30 -a 2 -x {2.0 3.0 -1 ------- null}
+ -t 0.756 -s 2 -d 1 -p cbr -e 1000 -c 2 -i 32 -a 2 -x {2.0 3.0 32 ------- null}
- -t 0.756 -s 2 -d 1 -p cbr -e 1000 -c 2 -i 32 -a 2 -x {2.0 3.0 32 ------- null}
h -t 0.756 -s 2 -d 1 -p cbr -e 1000 -c 2 -i 32 -a 2 -x {2.0 3.0 -1 ------- null}
r -t 0.76 -s 4 -d 3 -p cbr -e 1000 -c 2 -i 26 -a 2 -x {2.0 3.0 26 ------- null}
r -t 0.762 -s 1 -d 4 -p cbr -e 1000 -c 2 -i 28 -a 2 -x {2.0 3.0 28 ------- null}
+ -t 0.762 -s 4 -d 3 -p cbr -e 1000 -c 2 -i 28 -a 2 -x {2.0 3.0 28 ------- null}